# vtk DataFile Version 2.0
RaysectMesh
ASCII
DATASET UNSTRUCTURED_GRID
POINTS 58 float
-0.10000000149011612 -0.20999999344348907 0.004000000189989805
-0.10000000149011612 0.009999999776482582 0.004000000189989805
-0.10000000149011612 -0.009999999776482582 0.004000000189989805
-0.10000000149011612 0.20999999344348907 0.004000000189989805
-0.10000000149011612 0.009999999776482582 -0.0
-0.10000000149011612 -0.20999999344348907 0.0
-0.10000000149011612 0.20999999344348907 -0.0
-0.10000000149011612 -0.009999999776482582 0.0
0.10000000149011612 0.009999999776482582 0.004000000189989805
0.10000000149011612 -0.20999999344348907 0.004000000189989805
0.10000000149011612 0.20999999344348907 0.004000000189989805
0.10000000149011612 -0.009999999776482582 0.004000000189989805
0.10000000149011612 0.009999999776482582 -0.0
0.10000000149011612 -0.20999999344348907 0.0
0.10000000149011612 -0.009999999776482582 0.0
0.10000000149011612 0.20999999344348907 -0.0
-0.10000000149011612 0.1599999964237213 -0.0
-0.10000000149011612 -0.05999999865889549 0.0
-0.10000000149011612 0.10999999940395355 -0.0
-0.10000000149011612 -0.10999999940395355 0.0
-0.10000000149011612 -0.1599999964237213 0.0
-0.10000000149011612 0.05999999865889549 -0.0
0.05000000074505806 0.009999999776482582 -0.0
0.05000000074505806 -0.20999999344348907 0.0
0.0 0.009999999776482582 -0.0
0.0 -0.20999999344348907 0.0
-0.05000000074505806 0.009999999776482582 -0.0
-0.05000000074505806 -0.20999999344348907 0.0
-0.05000000074505806 0.20999999344348907 -0.0
-0.05000000074505806 -0.009999999776482582 0.0
0.0 0.20999999344348907 -0.0
0.0 -0.009999999776482582 0.0
0.05000000074505806 -0.009999999776482582 0.0
0.05000000074505806 0.20999999344348907 -0.0
0.10000000149011612 0.1599999964237213 -0.0
0.10000000149011612 -0.05999999865889549 0.0
0.10000000149011612 0.10999999940395355 -0.0
0.10000000149011612 -0.10999999940395355 0.0
0.10000000149011612 0.05999999865889549 -0.0
0.10000000149011612 -0.1599999964237213 0.0
-0.05000000074505806 0.05999999865889549 -0.0
-0.05000000074505806 -0.1599999964237213 0.0
0.0 -0.1599999964237213 0.0
0.0 0.05999999865889549 -0.0
0.05000000074505806 -0.1599999964237213 0.0
0.05000000074505806 0.05999999865889549 -0.0
-0.05000000074505806 -0.10999999940395355 0.0
-0.05000000074505806 0.10999999940395355 -0.0
0.0 0.10999999940395355 -0.0
0.0 -0.10999999940395355 0.0
0.05000000074505806 0.10999999940395355 -0.0
0.05000000074505806 -0.10999999940395355 0.0
-0.05000000074505806 0.1599999964237213 -0.0
-0.05000000074505806 -0.05999999865889549 0.0
0.0 0.1599999964237213 -0.0
0.0 -0.05999999865889549 0.0
0.05000000074505806 0.1599999964237213 -0.0
0.05000000074505806 -0.05999999865889549 0.0
CELLS 108 432
3 19 20 0
3 32 35 57
3 37 35 11
3 11 0 9
3 25 23 9
3 31 29 2
3 44 13 23
3 51 39 44
3 57 37 51
3 20 27 5
3 41 25 27
3 42 23 25
3 19 41 20
3 46 42 41
3 49 44 42
3 17 46 19
3 53 49 46
3 55 51 49
3 7 53 17
3 29 55 53
3 31 57 55
3 18 21 1
3 33 34 56
3 36 34 10
3 10 1 8
3 24 22 8
3 30 28 3
3 45 12 22
3 50 38 45
3 56 36 50
3 21 26 4
3 40 24 26
3 43 22 24
3 18 40 21
3 47 43 40
3 48 45 43
3 16 47 18
3 52 48 47
3 54 50 48
3 6 52 16
3 28 54 52
3 30 56 54
3 20 5 0
3 0 2 19
3 2 7 17
3 2 17 19
3 32 14 35
3 35 14 11
3 11 9 37
3 9 13 39
3 9 39 37
3 11 2 0
3 23 13 9
3 9 0 25
3 0 5 27
3 0 27 25
3 29 7 2
3 2 11 31
3 11 14 32
3 11 32 31
3 44 39 13
3 51 37 39
3 57 35 37
3 20 41 27
3 41 42 25
3 42 44 23
3 19 46 41
3 46 49 42
3 49 51 44
3 17 53 46
3 53 55 49
3 55 57 51
3 7 29 53
3 29 31 55
3 31 32 57
3 21 4 1
3 1 3 18
3 3 6 16
3 3 16 18
3 33 15 34
3 34 15 10
3 10 8 36
3 8 12 38
3 8 38 36
3 10 3 1
3 22 12 8
3 8 1 24
3 1 4 26
3 1 26 24
3 28 6 3
3 3 10 30
3 10 15 33
3 10 33 30
3 45 38 12
3 50 36 38
3 56 34 36
3 21 40 26
3 40 43 24
3 43 45 22
3 18 47 40
3 47 48 43
3 48 50 45
3 16 52 47
3 52 54 48
3 54 56 50
3 6 28 52
3 28 30 54
3 30 33 56
CELL_TYPES 108
5
5
5
5
5
5
5
5
5
5
5
5
5
5
5
5
5
5
5
5
5
5
5
5
5
5
5
5
5
5
5
5
5
5
5
5
5
5
5
5
5
5
5
5
5
5
5
5
5
5
5
5
5
5
5
5
5
5
5
5
5
5
5
5
5
5
5
5
5
5
5
5
5
5
5
5
5
5
5
5
5
5
5
5
5
5
5
5
5
5
5
5
5
5
5
5
5
5
5
5
5
5
5
5
5
5
5
5
CELL_DATA 108
SCALARS PowerDensity FLOAT
LOOKUP_TABLE default
0.00015226770226322187
0.0004983299423456522
0.00015544421418750912
0.00019905311690733346
0.00030443742399380227
0.000423200196743245
0.0003882237591437066
0.0004135424226170729
0.00044590980234732587
0.0003812324715869718
0.0003985842241977778
0.00040380524461817655
0.0004089587620536811
0.0004391887343783481
0.00044932655237421305
0.0004394887355809861
0.0004905450667055559
0.0004845608509043861
0.0004682816254726994
0.000523985272873511
0.0005091764233474735
0.00015448847377033656
0.0006055728010791311
0.00017206847760680544
0.00019672320093686664
0.00024483105775021063
0.00035196471826354713
0.0005540220969060698
0.0006008619196794376
0.0006350402402326907
0.0005507436865220583
0.0005917219029204448
0.0005922192241727917
0.0005825081749613825
0.0006466120287699013
0.0006585965194952112
0.000608942487630388
0.0006557416784531144
0.000668828344927412
0.0005944296628472742
0.0006359421082033894
0.0006465291192611183
0.00015181439269550405
0.00016233934952271522
0.0001635267354904154
0.00016122086809593412
0.0004960425037026502
0.00015964514675551497
0.00015978949729127586
0.00015259990305762982
0.00014930050561217894
0.00020409254372361294
0.00030239030557639045
0.0003110781193322206
0.0003017570773823613
0.0003122818329342064
0.00040889051371135695
0.0004215526742419679
0.00041167414319644765
0.00041290645092295956
0.0003896442563449292
0.0004156774510601976
0.00046309999754110925
0.00040204916685987734
0.00041998690079327186
0.0004052883478550364
0.0004324850088734494
0.000452290312691019
0.000448164963656992
0.0004740574300341521
0.0005108237360504223
0.0004981776349624488
0.0005105144386232865
0.0005548871762195168
0.0005503631004446993
0.00015857079739370477
0.00017047314906200182
0.0001799075434050232
0.00017273386071747578
0.0005790662045553073
0.000184957498194288
0.00016553019617101912
0.00016420002642836309
0.00015917919578322144
0.00020857814919690118
0.00023914269067370746
0.00024576243667563593
0.00024039825116995616
0.0002450438246608107
0.00034441702980277106
0.0003530587631914684
0.000345230855703402
0.0003483397839639574
0.0005534547316874693
0.0006024099537473242
0.000609980266380358
0.0005910030930661118
0.0006303099984223082
0.0006168238800792251
0.0006062269565316302
0.0006633627083328191
0.0006448618316236064
0.0006286307620272263
0.0006671615672753496
0.0006637849749100235
0.0006075772353435499
0.0006349691479485347
0.0006245946692241482
SCALARS PowerDensityError FLOAT
LOOKUP_TABLE default
2.5111474717861143e-06
8.19480378895474e-06
2.9510152147099416e-06
3.085907564960422e-06
3.7249560016889273e-06
5.1814482537342425e-06
4.814438355415855e-06
5.635992854982426e-06
6.7967411096597e-06
4.770202409837292e-06
4.890351207965379e-06
4.9432341227646804e-06
5.5426564021945155e-06
5.731908509087499e-06
5.765594526213534e-06
6.697142855518877e-06
6.9960291599857134e-06
6.998127422314316e-06
7.974019003752963e-06
8.431787539087627e-06
8.429572230689611e-06
3.045371482885684e-06
9.26357804981235e-06
3.3806208008485813e-06
3.7794195161657028e-06
3.196718338675755e-06
4.644257847781042e-06
9.063487098497479e-06
8.789281344666433e-06
8.89128245743554e-06
8.91915686790591e-06
9.372646374931604e-06
9.438706767070053e-06
8.643274211443828e-06
9.080763640810858e-06
9.112947351799487e-06
8.715654595881464e-06
9.068958315539281e-06
9.115571077049278e-06
9.106195605671658e-06
9.507634842645301e-06
9.572854313551396e-06
2.4852166631830857e-06
2.740366381811003e-06
3.173177783849376e-06
2.960409114653562e-06
8.434594589804793e-06
3.193461264037801e-06
2.7379588013239827e-06
2.4811214729303126e-06
2.477062273198291e-06
3.5359611826060183e-06
3.700135311813713e-06
3.8083410533100083e-06
3.692466352252284e-06
3.822563596706838e-06
5.029283630479687e-06
5.214929080636883e-06
5.0419706716036586e-06
5.079069177181436e-06
4.994412715631572e-06
5.911170288777648e-06
7.187155470924976e-06
5.056234562350167e-06
5.144640477076557e-06
5.118698099344636e-06
5.976056658123389e-06
6.123402042954284e-06
6.0898020565880225e-06
7.279085161203172e-06
7.540287617843541e-06
7.4799307060443154e-06
8.591538067795167e-06
8.951887728592392e-06
8.87736740133836e-06
3.1887658207853024e-06
3.1375943970814695e-06
3.7332047661415763e-06
3.360172010624436e-06
9.189628756551344e-06
3.751438779101448e-06
3.1445685120234307e-06
3.193851031546786e-06
3.0580196421430068e-06
4.077160943735542e-06
3.175216907794798e-06
3.1853478776243117e-06
3.1724022628675085e-06
3.182435021723785e-06
4.64125693983125e-06
4.6728137243241805e-06
4.633910720038303e-06
4.661089200296909e-06
8.8364474812001e-06
8.647523492507749e-06
8.861494910225295e-06
9.053975855270714e-06
9.372619855027503e-06
9.289416155750585e-06
8.76658497990232e-06
9.045368260913995e-06
8.997438789923459e-06
8.980660243769132e-06
9.278139324432476e-06
9.23290493197394e-06
9.38812862547559e-06
9.724170691217945e-06
9.647993784125913e-06
