# vtk DataFile Version 2.0
RaysectMesh
ASCII
DATASET UNSTRUCTURED_GRID
POINTS 58 float
-0.10000000149011612 -0.20999999344348907 0.004000000189989805
-0.10000000149011612 0.009999999776482582 0.004000000189989805
-0.10000000149011612 -0.009999999776482582 0.004000000189989805
-0.10000000149011612 0.20999999344348907 0.004000000189989805
-0.10000000149011612 0.009999999776482582 -0.0
-0.10000000149011612 -0.20999999344348907 0.0
-0.10000000149011612 0.20999999344348907 -0.0
-0.10000000149011612 -0.009999999776482582 0.0
0.10000000149011612 0.009999999776482582 0.004000000189989805
0.10000000149011612 -0.20999999344348907 0.004000000189989805
0.10000000149011612 0.20999999344348907 0.004000000189989805
0.10000000149011612 -0.009999999776482582 0.004000000189989805
0.10000000149011612 0.009999999776482582 -0.0
0.10000000149011612 -0.20999999344348907 0.0
0.10000000149011612 -0.009999999776482582 0.0
0.10000000149011612 0.20999999344348907 -0.0
-0.10000000149011612 0.1599999964237213 -0.0
-0.10000000149011612 -0.05999999865889549 0.0
-0.10000000149011612 0.10999999940395355 -0.0
-0.10000000149011612 -0.10999999940395355 0.0
-0.10000000149011612 -0.1599999964237213 0.0
-0.10000000149011612 0.05999999865889549 -0.0
0.05000000074505806 0.009999999776482582 -0.0
0.05000000074505806 -0.20999999344348907 0.0
0.0 0.009999999776482582 -0.0
0.0 -0.20999999344348907 0.0
-0.05000000074505806 0.009999999776482582 -0.0
-0.05000000074505806 -0.20999999344348907 0.0
-0.05000000074505806 0.20999999344348907 -0.0
-0.05000000074505806 -0.009999999776482582 0.0
0.0 0.20999999344348907 -0.0
0.0 -0.009999999776482582 0.0
0.05000000074505806 -0.009999999776482582 0.0
0.05000000074505806 0.20999999344348907 -0.0
0.10000000149011612 0.1599999964237213 -0.0
0.10000000149011612 -0.05999999865889549 0.0
0.10000000149011612 0.10999999940395355 -0.0
0.10000000149011612 -0.10999999940395355 0.0
0.10000000149011612 0.05999999865889549 -0.0
0.10000000149011612 -0.1599999964237213 0.0
-0.05000000074505806 0.05999999865889549 -0.0
-0.05000000074505806 -0.1599999964237213 0.0
0.0 -0.1599999964237213 0.0
0.0 0.05999999865889549 -0.0
0.05000000074505806 -0.1599999964237213 0.0
0.05000000074505806 0.05999999865889549 -0.0
-0.05000000074505806 -0.10999999940395355 0.0
-0.05000000074505806 0.10999999940395355 -0.0
0.0 0.10999999940395355 -0.0
0.0 -0.10999999940395355 0.0
0.05000000074505806 0.10999999940395355 -0.0
0.05000000074505806 -0.10999999940395355 0.0
-0.05000000074505806 0.1599999964237213 -0.0
-0.05000000074505806 -0.05999999865889549 0.0
0.0 0.1599999964237213 -0.0
0.0 -0.05999999865889549 0.0
0.05000000074505806 0.1599999964237213 -0.0
0.05000000074505806 -0.05999999865889549 0.0
CELLS 108 432
3 19 20 0
3 32 35 57
3 37 35 11
3 11 0 9
3 25 23 9
3 31 29 2
3 44 13 23
3 51 39 44
3 57 37 51
3 20 27 5
3 41 25 27
3 42 23 25
3 19 41 20
3 46 42 41
3 49 44 42
3 17 46 19
3 53 49 46
3 55 51 49
3 7 53 17
3 29 55 53
3 31 57 55
3 18 21 1
3 33 34 56
3 36 34 10
3 10 1 8
3 24 22 8
3 30 28 3
3 45 12 22
3 50 38 45
3 56 36 50
3 21 26 4
3 40 24 26
3 43 22 24
3 18 40 21
3 47 43 40
3 48 45 43
3 16 47 18
3 52 48 47
3 54 50 48
3 6 52 16
3 28 54 52
3 30 56 54
3 20 5 0
3 0 2 19
3 2 7 17
3 2 17 19
3 32 14 35
3 35 14 11
3 11 9 37
3 9 13 39
3 9 39 37
3 11 2 0
3 23 13 9
3 9 0 25
3 0 5 27
3 0 27 25
3 29 7 2
3 2 11 31
3 11 14 32
3 11 32 31
3 44 39 13
3 51 37 39
3 57 35 37
3 20 41 27
3 41 42 25
3 42 44 23
3 19 46 41
3 46 49 42
3 49 51 44
3 17 53 46
3 53 55 49
3 55 57 51
3 7 29 53
3 29 31 55
3 31 32 57
3 21 4 1
3 1 3 18
3 3 6 16
3 3 16 18
3 33 15 34
3 34 15 10
3 10 8 36
3 8 12 38
3 8 38 36
3 10 3 1
3 22 12 8
3 8 1 24
3 1 4 26
3 1 26 24
3 28 6 3
3 3 10 30
3 10 15 33
3 10 33 30
3 45 38 12
3 50 36 38
3 56 34 36
3 21 40 26
3 40 43 24
3 43 45 22
3 18 47 40
3 47 48 43
3 48 50 45
3 16 52 47
3 52 54 48
3 54 56 50
3 6 28 52
3 28 30 54
3 30 33 56
CELL_TYPES 108
5
5
5
5
5
5
5
5
5
5
5
5
5
5
5
5
5
5
5
5
5
5
5
5
5
5
5
5
5
5
5
5
5
5
5
5
5
5
5
5
5
5
5
5
5
5
5
5
5
5
5
5
5
5
5
5
5
5
5
5
5
5
5
5
5
5
5
5
5
5
5
5
5
5
5
5
5
5
5
5
5
5
5
5
5
5
5
5
5
5
5
5
5
5
5
5
5
5
5
5
5
5
5
5
5
5
5
5
CELL_DATA 108
SCALARS PowerDensity FLOAT
LOOKUP_TABLE default
0.00019668475495430337
0.00043728092717368897
0.0001762219389191376
0.0002800554347097881
0.00044280077348747766
0.0003678147933231304
0.000495604674357922
0.00046997403219402773
0.00044822677001204244
0.0004719817378406601
0.0005109240709612956
0.0005166580087095122
0.0004394019788947393
0.00048390806030366426
0.0004979411491128578
0.0004380823637272049
0.0004640947216801955
0.00046340168175415026
0.00042933860665934724
0.0004587227913627025
0.00046809141896202286
0.0001661937058531231
0.00048652137943232975
0.00016365914153844123
0.00020989976083707836
0.00038902582155144963
0.0003235983366861264
0.00045222996171666703
0.0004780876756023652
0.00048781318131654487
0.0004431537090779772
0.0004737809689896895
0.0004792144096671778
0.0004560511480075514
0.0005027101389653381
0.0005013181694415916
0.00048171751929097393
0.0005031801754282383
0.0005044275417940169
0.000458323313611771
0.0004913733099812745
0.0005138061244518775
0.00021114259485738705
0.00018878525798270837
0.0001693012624012715
0.00017913055042726846
0.0004326925695558793
0.0001731467640512579
0.0001860043009374992
0.0002086024956450269
0.00020448425963067075
0.00025281910783804215
0.00041746417169706866
0.0004368134803386331
0.0004173814906080373
0.0004279511559127565
0.0003671106098264272
0.0003640086002929531
0.00035857439441307236
0.0003630302022389111
0.00046830273321646555
0.00045284666558353324
0.00043048041119046705
0.0004888103250721954
0.0005149922764688035
0.0004997475379043522
0.0004633540065883471
0.0004762585429427496
0.0004741538754760782
0.00044380290585570883
0.0004663615355426035
0.0004601569330108803
0.00043970270308976196
0.000461195777756254
0.00046339843671830346
0.00015992674778256592
0.0001605041232682666
0.00018175926464853841
0.00017050244209347262
0.0004602801700905009
0.0001790517625439249
0.00016619151525864358
0.0001642694972592388
0.00016159218147252647
0.00021441592874816355
0.0003851181507887401
0.0003930258201192862
0.000380901709662905
0.00039011664478156666
0.0003172230242144117
0.00031765366076856556
0.00030975832871289765
0.00032151024902761635
0.0004483504247312575
0.0004543297425180982
0.00047118895884680945
0.00045756699170392364
0.0004911623232327215
0.0004898160202793997
0.00048238375833706726
0.0005091645237162961
0.0005016798860654135
0.00048596842687664035
0.0005151850007857692
0.0005013267454515984
0.0004747420744136997
0.0005029749803854449
0.0004860242163678234
SCALARS PowerDensityError FLOAT
LOOKUP_TABLE default
4.312984613688227e-06
5.371922578338723e-06
3.5117080198160525e-06
5.4449675627089634e-06
6.343240247681914e-06
4.576000081820782e-06
7.159280110771495e-06
6.209955844424559e-06
5.619406830856966e-06
7.02912659562134e-06
7.2615066295078675e-06
7.315659982634248e-06
6.10200378103264e-06
6.306733187350882e-06
6.349117149276468e-06
5.546738794111536e-06
5.7380346075261445e-06
5.726297448670572e-06
5.291292239240418e-06
5.638053828486884e-06
5.7520717527309864e-06
3.0186388153525733e-06
8.463357467819653e-06
3.4017278210412607e-06
3.7403290957509898e-06
4.778400284174501e-06
4.5269524799907805e-06
5.572832737402058e-06
6.297776872012255e-06
7.372470367305747e-06
5.539966566730565e-06
5.8208185023060675e-06
5.887335777700446e-06
6.203013881502213e-06
6.42258118547118e-06
6.416583267356218e-06
7.283181932343527e-06
7.524833632706282e-06
7.580040054323126e-06
8.292331251520093e-06
8.694934879706445e-06
8.800592297669028e-06
4.5887615681412855e-06
3.9577172534039475e-06
3.2892811533043234e-06
3.538715081189697e-06
5.3236318347595965e-06
3.2886328657413167e-06
3.950890860393615e-06
4.5903771420560876e-06
4.328961761934364e-06
4.688528658273606e-06
6.1867846944750715e-06
6.313742636935129e-06
6.178065599638189e-06
6.2853592656535485e-06
4.536991766779271e-06
4.536201434530903e-06
4.510901871843543e-06
4.536281673055266e-06
6.6952458934173605e-06
5.914661800736327e-06
5.4384722510321525e-06
6.801620871311476e-06
6.945421361722766e-06
6.8914589846535955e-06
5.983365340777203e-06
6.052590277274462e-06
6.0527049043145775e-06
5.47911638906603e-06
5.7309097529901615e-06
5.6546197340410225e-06
5.4039133433336605e-06
5.6701054791389145e-06
5.69309704561703e-06
3.0375671460071057e-06
3.1656665519680506e-06
3.780748489684975e-06
3.4165689518447347e-06
8.493970351702893e-06
3.7558837860720433e-06
3.1802053904672004e-06
3.0595212351003045e-06
2.9881466743536866e-06
4.12139417613613e-06
4.736936802627412e-06
4.836490762994139e-06
4.6877928289018394e-06
4.813632934226121e-06
4.466911522321522e-06
4.526870654557467e-06
4.460785382335381e-06
4.502367800432206e-06
5.703176704711756e-06
6.513557952346691e-06
7.612078199589054e-06
5.74179259488589e-06
6.0339917557934225e-06
6.039124367247678e-06
6.629908761114462e-06
6.807169526592444e-06
6.727208337528015e-06
7.737143252896789e-06
8.027879226381785e-06
7.9616723449059e-06
8.704089763817275e-06
9.062187760064126e-06
8.941546482757317e-06
