# vtk DataFile Version 2.0
RaysectMesh
ASCII
DATASET UNSTRUCTURED_GRID
POINTS 58 float
-0.10000000149011612 -0.20999999344348907 0.004000000189989805
-0.10000000149011612 0.009999999776482582 0.004000000189989805
-0.10000000149011612 -0.009999999776482582 0.004000000189989805
-0.10000000149011612 0.20999999344348907 0.004000000189989805
-0.10000000149011612 0.009999999776482582 -0.0
-0.10000000149011612 -0.20999999344348907 0.0
-0.10000000149011612 0.20999999344348907 -0.0
-0.10000000149011612 -0.009999999776482582 0.0
0.10000000149011612 0.009999999776482582 0.004000000189989805
0.10000000149011612 -0.20999999344348907 0.004000000189989805
0.10000000149011612 0.20999999344348907 0.004000000189989805
0.10000000149011612 -0.009999999776482582 0.004000000189989805
0.10000000149011612 0.009999999776482582 -0.0
0.10000000149011612 -0.20999999344348907 0.0
0.10000000149011612 -0.009999999776482582 0.0
0.10000000149011612 0.20999999344348907 -0.0
-0.10000000149011612 0.1599999964237213 -0.0
-0.10000000149011612 -0.05999999865889549 0.0
-0.10000000149011612 0.10999999940395355 -0.0
-0.10000000149011612 -0.10999999940395355 0.0
-0.10000000149011612 -0.1599999964237213 0.0
-0.10000000149011612 0.05999999865889549 -0.0
0.05000000074505806 0.009999999776482582 -0.0
0.05000000074505806 -0.20999999344348907 0.0
0.0 0.009999999776482582 -0.0
0.0 -0.20999999344348907 0.0
-0.05000000074505806 0.009999999776482582 -0.0
-0.05000000074505806 -0.20999999344348907 0.0
-0.05000000074505806 0.20999999344348907 -0.0
-0.05000000074505806 -0.009999999776482582 0.0
0.0 0.20999999344348907 -0.0
0.0 -0.009999999776482582 0.0
0.05000000074505806 -0.009999999776482582 0.0
0.05000000074505806 0.20999999344348907 -0.0
0.10000000149011612 0.1599999964237213 -0.0
0.10000000149011612 -0.05999999865889549 0.0
0.10000000149011612 0.10999999940395355 -0.0
0.10000000149011612 -0.10999999940395355 0.0
0.10000000149011612 0.05999999865889549 -0.0
0.10000000149011612 -0.1599999964237213 0.0
-0.05000000074505806 0.05999999865889549 -0.0
-0.05000000074505806 -0.1599999964237213 0.0
0.0 -0.1599999964237213 0.0
0.0 0.05999999865889549 -0.0
0.05000000074505806 -0.1599999964237213 0.0
0.05000000074505806 0.05999999865889549 -0.0
-0.05000000074505806 -0.10999999940395355 0.0
-0.05000000074505806 0.10999999940395355 -0.0
0.0 0.10999999940395355 -0.0
0.0 -0.10999999940395355 0.0
0.05000000074505806 0.10999999940395355 -0.0
0.05000000074505806 -0.10999999940395355 0.0
-0.05000000074505806 0.1599999964237213 -0.0
-0.05000000074505806 -0.05999999865889549 0.0
0.0 0.1599999964237213 -0.0
0.0 -0.05999999865889549 0.0
0.05000000074505806 0.1599999964237213 -0.0
0.05000000074505806 -0.05999999865889549 0.0
CELLS 108 432
3 19 20 0
3 32 35 57
3 37 35 11
3 11 0 9
3 25 23 9
3 31 29 2
3 44 13 23
3 51 39 44
3 57 37 51
3 20 27 5
3 41 25 27
3 42 23 25
3 19 41 20
3 46 42 41
3 49 44 42
3 17 46 19
3 53 49 46
3 55 51 49
3 7 53 17
3 29 55 53
3 31 57 55
3 18 21 1
3 33 34 56
3 36 34 10
3 10 1 8
3 24 22 8
3 30 28 3
3 45 12 22
3 50 38 45
3 56 36 50
3 21 26 4
3 40 24 26
3 43 22 24
3 18 40 21
3 47 43 40
3 48 45 43
3 16 47 18
3 52 48 47
3 54 50 48
3 6 52 16
3 28 54 52
3 30 56 54
3 20 5 0
3 0 2 19
3 2 7 17
3 2 17 19
3 32 14 35
3 35 14 11
3 11 9 37
3 9 13 39
3 9 39 37
3 11 2 0
3 23 13 9
3 9 0 25
3 0 5 27
3 0 27 25
3 29 7 2
3 2 11 31
3 11 14 32
3 11 32 31
3 44 39 13
3 51 37 39
3 57 35 37
3 20 41 27
3 41 42 25
3 42 44 23
3 19 46 41
3 46 49 42
3 49 51 44
3 17 53 46
3 53 55 49
3 55 57 51
3 7 29 53
3 29 31 55
3 31 32 57
3 21 4 1
3 1 3 18
3 3 6 16
3 3 16 18
3 33 15 34
3 34 15 10
3 10 8 36
3 8 12 38
3 8 38 36
3 10 3 1
3 22 12 8
3 8 1 24
3 1 4 26
3 1 26 24
3 28 6 3
3 3 10 30
3 10 15 33
3 10 33 30
3 45 38 12
3 50 36 38
3 56 34 36
3 21 40 26
3 40 43 24
3 43 45 22
3 18 47 40
3 47 48 43
3 48 50 45
3 16 52 47
3 52 54 48
3 54 56 50
3 6 28 52
3 28 30 54
3 30 33 56
CELL_TYPES 108
5
5
5
5
5
5
5
5
5
5
5
5
5
5
5
5
5
5
5
5
5
5
5
5
5
5
5
5
5
5
5
5
5
5
5
5
5
5
5
5
5
5
5
5
5
5
5
5
5
5
5
5
5
5
5
5
5
5
5
5
5
5
5
5
5
5
5
5
5
5
5
5
5
5
5
5
5
5
5
5
5
5
5
5
5
5
5
5
5
5
5
5
5
5
5
5
5
5
5
5
5
5
5
5
5
5
5
5
CELL_DATA 108
SCALARS PowerDensity FLOAT
LOOKUP_TABLE default
0.00020849615187756054
0.00040454733750543766
0.00019362283133601715
0.00029157476974093864
0.00048700501018968524
0.0003604117960218279
0.0004640923455362141
0.00043509317985831943
0.0004201760864593498
0.0004440251600672859
0.00045896741369154794
0.000484032782972205
0.0004329948804862119
0.00045022701557383463
0.00045327134711402247
0.0004038455851437165
0.0004306304360891793
0.0004319748964875713
0.00039776938775188905
0.0004171512496211338
0.0004301165457040209
0.00017730672967076713
0.00045307582477645205
0.00017473713053736884
0.00023920997792802428
0.00040465662942673825
0.00031662509696747464
0.0004162499228062709
0.0004428840901838861
0.0004661977950524942
0.00040949690141243506
0.00043334257162987893
0.00043926789445903594
0.0004223495405715078
0.0004584459772268399
0.0004653909932954041
0.000436426678049383
0.00046345145745701317
0.00047266560924610717
0.00044636803050177606
0.00048376393922172823
0.00048119385572538225
0.00022399556267174066
0.00019759384177057968
0.00018570953862292387
0.00019502254225347903
0.00040924357878301896
0.000186628623448866
0.0001892188989374876
0.0002195109416790665
0.00021202697410286947
0.0002746392658503498
0.00047499250238222353
0.0004908012154754386
0.0004826323485114269
0.0004935380374803691
0.00034748376772207953
0.0003647618110489043
0.00035142250262049785
0.00036553879054700925
0.0004318405566186223
0.0004111178040639647
0.0004076918600167781
0.00046171013865782724
0.00046611937948402973
0.00047513762638796265
0.0004237271384913492
0.00044680613398048285
0.00044302890503426686
0.00041252349185814697
0.00042923946046975444
0.0004304439865111724
0.0004051275753332519
0.0004289309747269038
0.00042047446340850016
0.00018052244583484364
0.0001816951390573353
0.00017687247339288664
0.0001761862003470368
0.00043919212944246524
0.00017540490997182244
0.0001764912004048923
0.00018072396426468485
0.00017852433676666203
0.00023129857855373534
0.000391939107682019
0.00039995695677789094
0.0003947857921286251
0.00039057708325399135
0.0003164328983022462
0.0003206618323338474
0.00031200201435524114
0.0003250948101318781
0.0004205677610183755
0.00043656951932980853
0.00043477626716781863
0.00043390047264049546
0.0004461265573008379
0.0004384370531142813
0.00045909802782079863
0.0004682787024663927
0.00047000018830736936
0.00045238846199581115
0.0004888089886905529
0.00047039466646627644
0.0004499258944492234
0.00047702137700559184
0.0004762023008246806
SCALARS PowerDensityError FLOAT
LOOKUP_TABLE default
4.266922115485356e-06
5.319458753292348e-06
3.5815364237421864e-06
5.358602207278356e-06
6.313447751672457e-06
4.627487715505882e-06
6.24372631068941e-06
5.822537784346638e-06
5.518239404543249e-06
6.147310593039716e-06
6.303704260329081e-06
6.368839796855472e-06
5.760988150181928e-06
5.903231029361408e-06
5.949243367920174e-06
5.4391010207499994e-06
5.582628977514018e-06
5.612776931652699e-06
5.27861445735772e-06
5.409916363392727e-06
5.523909199776201e-06
3.152393421722591e-06
8.295374169055971e-06
3.454927196287862e-06
4.0205860013904615e-06
5.195133257115755e-06
4.478965849807795e-06
5.52171189495717e-06
6.1922380657535985e-06
7.296442727709141e-06
5.495690137068925e-06
5.611475673321757e-06
5.63912192970368e-06
6.102948269538861e-06
6.293774457350906e-06
6.321443281805271e-06
7.102810644319189e-06
7.378823091673951e-06
7.461424051793303e-06
8.136688964401319e-06
8.645126733501173e-06
8.612184163350316e-06
4.545220055614507e-06
3.972715228206396e-06
3.412378319301972e-06
3.6078630700683084e-06
5.3123791226534635e-06
3.436654453729801e-06
3.937871246622126e-06
4.552931359273576e-06
4.30037400973528e-06
4.753917046003283e-06
6.1676833780728905e-06
6.3038305813309675e-06
6.219222230114898e-06
6.335730595312555e-06
4.487789357323331e-06
4.68327057549792e-06
4.525963421191385e-06
4.693231197917569e-06
5.972940645043804e-06
5.603092435449029e-06
5.4032976830475505e-06
6.1158816520654825e-06
6.217702398335252e-06
6.214179629363232e-06
5.694628170610264e-06
5.843370607601451e-06
5.809026433582938e-06
5.42720363822089e-06
5.542686999130523e-06
5.5694365802012336e-06
5.328026863987589e-06
5.534231446525147e-06
5.422079304977885e-06
3.2294079769514273e-06
3.3077612392391657e-06
3.7793406306729746e-06
3.470811143595567e-06
8.380875435705782e-06
3.766091281709852e-06
3.2815542418695754e-06
3.242878324895487e-06
3.1668533486704968e-06
4.297442401753759e-06
5.036549057899511e-06
5.136081405426047e-06
5.081190578253236e-06
5.025624548970726e-06
4.4658515690860686e-06
4.493537344196669e-06
4.46273438755607e-06
4.494274892016301e-06
5.681815814165031e-06
6.414282152885221e-06
7.4824770252453625e-06
5.730589402343409e-06
5.8270040105884645e-06
5.791736576841692e-06
6.547960142598567e-06
6.66043136395864e-06
6.657623309385775e-06
7.597911612451171e-06
7.904092653635148e-06
7.790397961239573e-06
8.604763937055861e-06
8.895657051139698e-06
8.83692561997988e-06
