# vtk DataFile Version 2.0
RaysectMesh
ASCII
DATASET UNSTRUCTURED_GRID
POINTS 58 float
-0.10000000149011612 -0.20999999344348907 0.004000000189989805
-0.10000000149011612 0.009999999776482582 0.004000000189989805
-0.10000000149011612 -0.009999999776482582 0.004000000189989805
-0.10000000149011612 0.20999999344348907 0.004000000189989805
-0.10000000149011612 0.009999999776482582 -0.0
-0.10000000149011612 -0.20999999344348907 0.0
-0.10000000149011612 0.20999999344348907 -0.0
-0.10000000149011612 -0.009999999776482582 0.0
0.10000000149011612 0.009999999776482582 0.004000000189989805
0.10000000149011612 -0.20999999344348907 0.004000000189989805
0.10000000149011612 0.20999999344348907 0.004000000189989805
0.10000000149011612 -0.009999999776482582 0.004000000189989805
0.10000000149011612 0.009999999776482582 -0.0
0.10000000149011612 -0.20999999344348907 0.0
0.10000000149011612 -0.009999999776482582 0.0
0.10000000149011612 0.20999999344348907 -0.0
-0.10000000149011612 0.1599999964237213 -0.0
-0.10000000149011612 -0.05999999865889549 0.0
-0.10000000149011612 0.10999999940395355 -0.0
-0.10000000149011612 -0.10999999940395355 0.0
-0.10000000149011612 -0.1599999964237213 0.0
-0.10000000149011612 0.05999999865889549 -0.0
0.05000000074505806 0.009999999776482582 -0.0
0.05000000074505806 -0.20999999344348907 0.0
0.0 0.009999999776482582 -0.0
0.0 -0.20999999344348907 0.0
-0.05000000074505806 0.009999999776482582 -0.0
-0.05000000074505806 -0.20999999344348907 0.0
-0.05000000074505806 0.20999999344348907 -0.0
-0.05000000074505806 -0.009999999776482582 0.0
0.0 0.20999999344348907 -0.0
0.0 -0.009999999776482582 0.0
0.05000000074505806 -0.009999999776482582 0.0
0.05000000074505806 0.20999999344348907 -0.0
0.10000000149011612 0.1599999964237213 -0.0
0.10000000149011612 -0.05999999865889549 0.0
0.10000000149011612 0.10999999940395355 -0.0
0.10000000149011612 -0.10999999940395355 0.0
0.10000000149011612 0.05999999865889549 -0.0
0.10000000149011612 -0.1599999964237213 0.0
-0.05000000074505806 0.05999999865889549 -0.0
-0.05000000074505806 -0.1599999964237213 0.0
0.0 -0.1599999964237213 0.0
0.0 0.05999999865889549 -0.0
0.05000000074505806 -0.1599999964237213 0.0
0.05000000074505806 0.05999999865889549 -0.0
-0.05000000074505806 -0.10999999940395355 0.0
-0.05000000074505806 0.10999999940395355 -0.0
0.0 0.10999999940395355 -0.0
0.0 -0.10999999940395355 0.0
0.05000000074505806 0.10999999940395355 -0.0
0.05000000074505806 -0.10999999940395355 0.0
-0.05000000074505806 0.1599999964237213 -0.0
-0.05000000074505806 -0.05999999865889549 0.0
0.0 0.1599999964237213 -0.0
0.0 -0.05999999865889549 0.0
0.05000000074505806 0.1599999964237213 -0.0
0.05000000074505806 -0.05999999865889549 0.0
CELLS 108 432
3 19 20 0
3 32 35 57
3 37 35 11
3 11 0 9
3 25 23 9
3 31 29 2
3 44 13 23
3 51 39 44
3 57 37 51
3 20 27 5
3 41 25 27
3 42 23 25
3 19 41 20
3 46 42 41
3 49 44 42
3 17 46 19
3 53 49 46
3 55 51 49
3 7 53 17
3 29 55 53
3 31 57 55
3 18 21 1
3 33 34 56
3 36 34 10
3 10 1 8
3 24 22 8
3 30 28 3
3 45 12 22
3 50 38 45
3 56 36 50
3 21 26 4
3 40 24 26
3 43 22 24
3 18 40 21
3 47 43 40
3 48 45 43
3 16 47 18
3 52 48 47
3 54 50 48
3 6 52 16
3 28 54 52
3 30 56 54
3 20 5 0
3 0 2 19
3 2 7 17
3 2 17 19
3 32 14 35
3 35 14 11
3 11 9 37
3 9 13 39
3 9 39 37
3 11 2 0
3 23 13 9
3 9 0 25
3 0 5 27
3 0 27 25
3 29 7 2
3 2 11 31
3 11 14 32
3 11 32 31
3 44 39 13
3 51 37 39
3 57 35 37
3 20 41 27
3 41 42 25
3 42 44 23
3 19 46 41
3 46 49 42
3 49 51 44
3 17 53 46
3 53 55 49
3 55 57 51
3 7 29 53
3 29 31 55
3 31 32 57
3 21 4 1
3 1 3 18
3 3 6 16
3 3 16 18
3 33 15 34
3 34 15 10
3 10 8 36
3 8 12 38
3 8 38 36
3 10 3 1
3 22 12 8
3 8 1 24
3 1 4 26
3 1 26 24
3 28 6 3
3 3 10 30
3 10 15 33
3 10 33 30
3 45 38 12
3 50 36 38
3 56 34 36
3 21 40 26
3 40 43 24
3 43 45 22
3 18 47 40
3 47 48 43
3 48 50 45
3 16 52 47
3 52 54 48
3 54 56 50
3 6 28 52
3 28 30 54
3 30 33 56
CELL_TYPES 108
5
5
5
5
5
5
5
5
5
5
5
5
5
5
5
5
5
5
5
5
5
5
5
5
5
5
5
5
5
5
5
5
5
5
5
5
5
5
5
5
5
5
5
5
5
5
5
5
5
5
5
5
5
5
5
5
5
5
5
5
5
5
5
5
5
5
5
5
5
5
5
5
5
5
5
5
5
5
5
5
5
5
5
5
5
5
5
5
5
5
5
5
5
5
5
5
5
5
5
5
5
5
5
5
5
5
5
5
CELL_DATA 108
SCALARS PowerDensity FLOAT
LOOKUP_TABLE default
0.00016401181213185215
0.0005103375856057693
0.00015794546479626337
0.0002129474033479116
0.0003282161671424498
0.0003764217612853162
0.000505876961785511
0.0005178294172874926
0.0005217206743965915
0.0004774349988811385
0.0005250507021112246
0.0005413128148194001
0.0005017773406483223
0.0005263669661905324
0.0005509293282347357
0.0004975655122348493
0.0005414423910648943
0.0005558182449581691
0.0004889285954072257
0.0005311675031488867
0.0005351381978082641
0.00015678704391453263
0.0004941295544942212
0.00016374979780728696
0.00020371525766482357
0.0003838965820891012
0.00032892170551229044
0.000511869851090583
0.0005161577064218509
0.000513627082435283
0.0004903958042874281
0.000531660697800476
0.0005340075739942788
0.00048747298546448196
0.0005373995039510415
0.0005456087313360839
0.0005016245107103906
0.000541981446470578
0.0005496215768042352
0.00049372472168471
0.0005386385029428486
0.0005440978697135599
0.00017983323346755143
0.00016881518838823064
0.00015855588852420314
0.00015997701594025934
0.0004941513943982653
0.00015687750416306628
0.0001631317501778756
0.00017636914348040196
0.00016728360793889208
0.00019478288431462698
0.0003315832298660177
0.0003287343787383461
0.00033378050969232187
0.0003292582852997739
0.00036544379192688867
0.00037409896071242347
0.0003649184641592954
0.00037657585940824594
0.0004955363553107952
0.0004963277473172402
0.0004959423095894875
0.0004978501627672194
0.0005420915275182336
0.0005294707484378472
0.0005181495391103267
0.0005486822200947976
0.0005428407613524697
0.0005274881587670476
0.000553506180829608
0.000528128186909003
0.0005119041591518377
0.0005295163294716908
0.0005256723472766891
0.00015733705854868268
0.00016983257368040878
0.0001741580518474288
0.000167055575782574
0.0004981860602717255
0.00017383345010744277
0.00016097803636165638
0.00015507495680358493
0.00015615558607094172
0.00021474326231097797
0.00037935290046106824
0.00038566176218388147
0.0003818540993163564
0.00039208010839990423
0.0003258839476183686
0.00033051737162020814
0.00033536349646948405
0.00033211763683625776
0.0004983731446482772
0.0005035258135684881
0.000487924482890607
0.0005101420639559112
0.0005318549039492499
0.0005310718138693337
0.0005152187776578705
0.0005385547351129733
0.0005419925348445035
0.0005147541589565447
0.0005526165910401526
0.0005338426077175747
0.0005003260187800906
0.0005364845775385261
0.000517647996321605
SCALARS PowerDensityError FLOAT
LOOKUP_TABLE default
3.4153107997009816e-06
6.060561415456739e-06
2.896373648182582e-06
4.1614711808396205e-06
4.6850984876611104e-06
4.560557074736944e-06
8.808410728687185e-06
7.859997624864063e-06
6.789338977469793e-06
8.608282987751282e-06
9.077507359250063e-06
9.197760304253761e-06
7.766042012132529e-06
8.059437638387459e-06
8.159105110574855e-06
6.6866552343710325e-06
6.916161387629235e-06
6.985329167073536e-06
5.934617411061704e-06
6.298770865097496e-06
6.350181895120918e-06
2.8458359618735047e-06
8.387243149873543e-06
3.2851487637183933e-06
3.4813124250686957e-06
4.575993030509953e-06
4.488910977119275e-06
6.078089108044905e-06
6.415049837180652e-06
7.384489622658602e-06
5.8410362218827765e-06
6.311216014942631e-06
6.345169047252174e-06
6.274855121959561e-06
6.51178151736475e-06
6.551243023860165e-06
7.249691728572058e-06
7.575278824389999e-06
7.598520082248581e-06
8.247027289968294e-06
8.69502500726053e-06
8.7445258863096e-06
3.832278184299047e-06
3.151156416891762e-06
2.863170368099139e-06
2.9048009234320404e-06
5.879122298699015e-06
2.8855711437432447e-06
3.1651360548549088e-06
3.8075363433524824e-06
3.4253870436846105e-06
3.5280124256304687e-06
4.615137286385532e-06
4.664757126928548e-06
4.638005327392955e-06
4.657145878886053e-06
4.464582382287264e-06
4.51370725660993e-06
4.467397694667327e-06
4.503293440324105e-06
8.378863430339305e-06
7.355795455049344e-06
6.3958337123744505e-06
8.52585167658009e-06
8.861581859920794e-06
8.794542196468018e-06
7.5299670986611005e-06
7.717691004293572e-06
7.680676713408665e-06
6.532025556404028e-06
6.646215794324642e-06
6.561292642513496e-06
6.079745226842706e-06
6.278999081525665e-06
6.233068243868738e-06
2.8198059944725326e-06
3.0766589238841193e-06
3.661938905628556e-06
3.2949827762059345e-06
8.490043107279243e-06
3.668284669378835e-06
3.068379514870242e-06
2.8264560523979024e-06
2.8362143159353323e-06
4.042496356127757e-06
4.532594139653948e-06
4.584954740010619e-06
4.569451795992036e-06
4.685279156155319e-06
4.459274829823714e-06
4.499715904438538e-06
4.478532813179546e-06
4.535312331491679e-06
5.923781578847385e-06
6.609611675963188e-06
7.567863484842349e-06
6.049087214744667e-06
6.308563884033916e-06
6.3114122213460346e-06
6.700636315344862e-06
6.83513474675598e-06
6.845747376483045e-06
7.754599392547547e-06
8.014940790346492e-06
7.975138667381418e-06
8.647816651865324e-06
9.008973813805267e-06
8.924343393570813e-06
