# vtk DataFile Version 2.0
RaysectMesh
ASCII
DATASET UNSTRUCTURED_GRID
POINTS 58 float
-0.10000000149011612 -0.20999999344348907 0.004000000189989805
-0.10000000149011612 0.009999999776482582 0.004000000189989805
-0.10000000149011612 -0.009999999776482582 0.004000000189989805
-0.10000000149011612 0.20999999344348907 0.004000000189989805
-0.10000000149011612 0.009999999776482582 -0.0
-0.10000000149011612 -0.20999999344348907 0.0
-0.10000000149011612 0.20999999344348907 -0.0
-0.10000000149011612 -0.009999999776482582 0.0
0.10000000149011612 0.009999999776482582 0.004000000189989805
0.10000000149011612 -0.20999999344348907 0.004000000189989805
0.10000000149011612 0.20999999344348907 0.004000000189989805
0.10000000149011612 -0.009999999776482582 0.004000000189989805
0.10000000149011612 0.009999999776482582 -0.0
0.10000000149011612 -0.20999999344348907 0.0
0.10000000149011612 -0.009999999776482582 0.0
0.10000000149011612 0.20999999344348907 -0.0
-0.10000000149011612 0.1599999964237213 -0.0
-0.10000000149011612 -0.05999999865889549 0.0
-0.10000000149011612 0.10999999940395355 -0.0
-0.10000000149011612 -0.10999999940395355 0.0
-0.10000000149011612 -0.1599999964237213 0.0
-0.10000000149011612 0.05999999865889549 -0.0
0.05000000074505806 0.009999999776482582 -0.0
0.05000000074505806 -0.20999999344348907 0.0
0.0 0.009999999776482582 -0.0
0.0 -0.20999999344348907 0.0
-0.05000000074505806 0.009999999776482582 -0.0
-0.05000000074505806 -0.20999999344348907 0.0
-0.05000000074505806 0.20999999344348907 -0.0
-0.05000000074505806 -0.009999999776482582 0.0
0.0 0.20999999344348907 -0.0
0.0 -0.009999999776482582 0.0
0.05000000074505806 -0.009999999776482582 0.0
0.05000000074505806 0.20999999344348907 -0.0
0.10000000149011612 0.1599999964237213 -0.0
0.10000000149011612 -0.05999999865889549 0.0
0.10000000149011612 0.10999999940395355 -0.0
0.10000000149011612 -0.10999999940395355 0.0
0.10000000149011612 0.05999999865889549 -0.0
0.10000000149011612 -0.1599999964237213 0.0
-0.05000000074505806 0.05999999865889549 -0.0
-0.05000000074505806 -0.1599999964237213 0.0
0.0 -0.1599999964237213 0.0
0.0 0.05999999865889549 -0.0
0.05000000074505806 -0.1599999964237213 0.0
0.05000000074505806 0.05999999865889549 -0.0
-0.05000000074505806 -0.10999999940395355 0.0
-0.05000000074505806 0.10999999940395355 -0.0
0.0 0.10999999940395355 -0.0
0.0 -0.10999999940395355 0.0
0.05000000074505806 0.10999999940395355 -0.0
0.05000000074505806 -0.10999999940395355 0.0
-0.05000000074505806 0.1599999964237213 -0.0
-0.05000000074505806 -0.05999999865889549 0.0
0.0 0.1599999964237213 -0.0
0.0 -0.05999999865889549 0.0
0.05000000074505806 0.1599999964237213 -0.0
0.05000000074505806 -0.05999999865889549 0.0
CELLS 108 432
3 19 20 0
3 32 35 57
3 37 35 11
3 11 0 9
3 25 23 9
3 31 29 2
3 44 13 23
3 51 39 44
3 57 37 51
3 20 27 5
3 41 25 27
3 42 23 25
3 19 41 20
3 46 42 41
3 49 44 42
3 17 46 19
3 53 49 46
3 55 51 49
3 7 53 17
3 29 55 53
3 31 57 55
3 18 21 1
3 33 34 56
3 36 34 10
3 10 1 8
3 24 22 8
3 30 28 3
3 45 12 22
3 50 38 45
3 56 36 50
3 21 26 4
3 40 24 26
3 43 22 24
3 18 40 21
3 47 43 40
3 48 45 43
3 16 47 18
3 52 48 47
3 54 50 48
3 6 52 16
3 28 54 52
3 30 56 54
3 20 5 0
3 0 2 19
3 2 7 17
3 2 17 19
3 32 14 35
3 35 14 11
3 11 9 37
3 9 13 39
3 9 39 37
3 11 2 0
3 23 13 9
3 9 0 25
3 0 5 27
3 0 27 25
3 29 7 2
3 2 11 31
3 11 14 32
3 11 32 31
3 44 39 13
3 51 37 39
3 57 35 37
3 20 41 27
3 41 42 25
3 42 44 23
3 19 46 41
3 46 49 42
3 49 51 44
3 17 53 46
3 53 55 49
3 55 57 51
3 7 29 53
3 29 31 55
3 31 32 57
3 21 4 1
3 1 3 18
3 3 6 16
3 3 16 18
3 33 15 34
3 34 15 10
3 10 8 36
3 8 12 38
3 8 38 36
3 10 3 1
3 22 12 8
3 8 1 24
3 1 4 26
3 1 26 24
3 28 6 3
3 3 10 30
3 10 15 33
3 10 33 30
3 45 38 12
3 50 36 38
3 56 34 36
3 21 40 26
3 40 43 24
3 43 45 22
3 18 47 40
3 47 48 43
3 48 50 45
3 16 52 47
3 52 54 48
3 54 56 50
3 6 28 52
3 28 30 54
3 30 33 56
CELL_TYPES 108
5
5
5
5
5
5
5
5
5
5
5
5
5
5
5
5
5
5
5
5
5
5
5
5
5
5
5
5
5
5
5
5
5
5
5
5
5
5
5
5
5
5
5
5
5
5
5
5
5
5
5
5
5
5
5
5
5
5
5
5
5
5
5
5
5
5
5
5
5
5
5
5
5
5
5
5
5
5
5
5
5
5
5
5
5
5
5
5
5
5
5
5
5
5
5
5
5
5
5
5
5
5
5
5
5
5
5
5
CELL_DATA 108
SCALARS PowerDensity FLOAT
LOOKUP_TABLE default
7.734769384936464e-05
0.0002275419755355654
7.700751503166744e-05
9.456488697048637e-05
0.00015959268107115863
0.0002584308300997105
0.00016475010208027668
0.00017457570833471342
0.0001963126736353173
0.00016433430780089564
0.00016696907948587014
0.00017208904309246243
0.00017216592495266869
0.00018825740263971987
0.000192727005242526
0.0001944460965668169
0.00021353609070866195
0.00020672166859478033
0.00022079447422667896
0.00022514618838188682
0.00023847824925534548
8.13829426449433e-05
0.0003220765508088655
9.786101658952219e-05
9.979468670885916e-05
0.00012742521876842123
0.00018821599082703564
0.00026880385684022407
0.00029589599282128884
0.00033099040474019375
0.0002679966148395629
0.0002814770415912142
0.00029065006983797415
0.00030208027878623355
0.0003057330160888098
0.0003133531043348815
0.0002999125519181625
0.00034075550616128464
0.0003510945562030221
0.0003224295474826063
0.00035009901126283147
0.00034247651375981917
8.195033843023642e-05
8.301115467702162e-05
7.898834968271758e-05
7.365243045403297e-05
0.00023688683556580834
8.128777856206731e-05
7.773915279787531e-05
8.049804889165238e-05
8.133606283357363e-05
9.604837528084073e-05
0.0001541629212863612
0.0001528304848729276
0.0001498639798058693
0.00015016306921548334
0.0002625466059164757
0.00027222881371573917
0.00025196952303391506
0.00025243120247908787
0.00016364487661392512
0.00018116174395714678
0.00020437273695780346
0.0001732860176976616
0.0001744496527581475
0.00017494962209609334
0.0001952964636396528
0.00019582459570789622
0.00019413912291634165
0.00020994720308211123
0.0002127599037810158
0.0002047785661197265
0.00023937279780865994
0.00024050079151786573
0.0002403408006315703
8.466567481204658e-05
8.737126364328347e-05
9.648971297627224e-05
9.0137726048109e-05
0.000317957555107966
0.0001026911883480611
8.628307662645221e-05
8.355263533089685e-05
8.285584487336027e-05
0.00011740936745608716
0.00012822665851932563
0.00013209100725129522
0.00012825218341335404
0.00012653680551448824
0.00018412591380289386
0.00019892685353851026
0.00018367483981449685
0.00018321817564126623
0.00027001480987672304
0.00030479706752618315
0.0003059977719907184
0.0002786547048602617
0.0003016967867538788
0.0002870081129094652
0.00029531463213710934
0.000337035591985784
0.0003229869705081813
0.00032461226723641643
0.00034943385370017296
0.00034009278675693435
0.00034723715555721004
0.00034476249121710234
0.0003338074330104277
SCALARS PowerDensityError FLOAT
LOOKUP_TABLE default
2.4885170690824476e-06
4.972092924553262e-06
2.625615235040283e-06
2.9409270117089546e-06
3.4620222264252385e-06
5.616109127254325e-06
3.637163623861168e-06
3.906451005429423e-06
4.330803883371407e-06
3.6635535807987264e-06
3.6984185505794732e-06
3.746494676129715e-06
3.883617035792266e-06
4.108205533378566e-06
4.200895204900527e-06
4.277947132869471e-06
4.641482778476277e-06
4.5402303421001535e-06
4.858602701781234e-06
4.919768278268083e-06
5.167057696021937e-06
3.002368084142712e-06
1.094291628503729e-05
3.903757472670909e-06
3.7810502380383573e-06
2.925967013071215e-06
5.430910594534078e-06
6.113859866451996e-06
7.483201964757904e-06
9.295894605869263e-06
6.088193294174832e-06
6.286634852091531e-06
6.296159047660322e-06
7.47712012645194e-06
7.588232117545808e-06
7.677249175910626e-06
9.015681108876836e-06
9.51388582552028e-06
9.608032141065161e-06
1.0721253040332704e-05
1.127065961763551e-05
1.138939528438205e-05
2.508138203737412e-06
2.656487676829035e-06
2.695968277581793e-06
2.6365641489481363e-06
5.140100782742423e-06
2.733574311669649e-06
2.6360344722779707e-06
2.5046876139406028e-06
2.510826671765683e-06
3.0192586016159887e-06
3.3838554659710217e-06
3.3674090537856254e-06
3.362935194627069e-06
3.317034279400957e-06
5.740884061554663e-06
5.928996553642221e-06
5.633525568070496e-06
5.589440749608678e-06
3.6988015363052386e-06
4.035709285781096e-06
4.530803077222424e-06
3.789713486067747e-06
3.8091561487936636e-06
3.830391479059189e-06
4.243455797858754e-06
4.290199415351228e-06
4.220082832998047e-06
4.555470422554953e-06
4.611111388036143e-06
4.551915592579995e-06
5.2082196928522475e-06
5.272781895948672e-06
5.206512340018724e-06
2.8983453329491796e-06
3.3802387912483666e-06
4.501921750804234e-06
3.904632498499295e-06
1.1072057370733528e-05
4.524798377438995e-06
3.4165802292302695e-06
2.867677026849474e-06
3.012322919431708e-06
4.813674940271126e-06
2.9563043810274613e-06
2.9583671132271555e-06
2.9331951891141766e-06
2.8929320995751857e-06
5.340102707034984e-06
5.477619640100547e-06
5.409366781691716e-06
5.442922110047185e-06
6.443451267044173e-06
7.964345049732275e-06
9.628153356815092e-06
6.524246261545451e-06
6.699804013181159e-06
6.639318347630172e-06
7.991162534738215e-06
8.228308890949343e-06
8.178920897477085e-06
9.894687545287881e-06
1.0262869518679836e-05
1.0138930842075632e-05
1.1325215427662453e-05
1.1786172437160546e-05
1.1690939971113754e-05
