# vtk DataFile Version 2.0
RaysectMesh
ASCII
DATASET UNSTRUCTURED_GRID
POINTS 58 float
-0.10000000149011612 -0.20999999344348907 0.004000000189989805
-0.10000000149011612 0.009999999776482582 0.004000000189989805
-0.10000000149011612 -0.009999999776482582 0.004000000189989805
-0.10000000149011612 0.20999999344348907 0.004000000189989805
-0.10000000149011612 0.009999999776482582 -0.0
-0.10000000149011612 -0.20999999344348907 0.0
-0.10000000149011612 0.20999999344348907 -0.0
-0.10000000149011612 -0.009999999776482582 0.0
0.10000000149011612 0.009999999776482582 0.004000000189989805
0.10000000149011612 -0.20999999344348907 0.004000000189989805
0.10000000149011612 0.20999999344348907 0.004000000189989805
0.10000000149011612 -0.009999999776482582 0.004000000189989805
0.10000000149011612 0.009999999776482582 -0.0
0.10000000149011612 -0.20999999344348907 0.0
0.10000000149011612 -0.009999999776482582 0.0
0.10000000149011612 0.20999999344348907 -0.0
-0.10000000149011612 0.1599999964237213 -0.0
-0.10000000149011612 -0.05999999865889549 0.0
-0.10000000149011612 0.10999999940395355 -0.0
-0.10000000149011612 -0.10999999940395355 0.0
-0.10000000149011612 -0.1599999964237213 0.0
-0.10000000149011612 0.05999999865889549 -0.0
0.05000000074505806 0.009999999776482582 -0.0
0.05000000074505806 -0.20999999344348907 0.0
0.0 0.009999999776482582 -0.0
0.0 -0.20999999344348907 0.0
-0.05000000074505806 0.009999999776482582 -0.0
-0.05000000074505806 -0.20999999344348907 0.0
-0.05000000074505806 0.20999999344348907 -0.0
-0.05000000074505806 -0.009999999776482582 0.0
0.0 0.20999999344348907 -0.0
0.0 -0.009999999776482582 0.0
0.05000000074505806 -0.009999999776482582 0.0
0.05000000074505806 0.20999999344348907 -0.0
0.10000000149011612 0.1599999964237213 -0.0
0.10000000149011612 -0.05999999865889549 0.0
0.10000000149011612 0.10999999940395355 -0.0
0.10000000149011612 -0.10999999940395355 0.0
0.10000000149011612 0.05999999865889549 -0.0
0.10000000149011612 -0.1599999964237213 0.0
-0.05000000074505806 0.05999999865889549 -0.0
-0.05000000074505806 -0.1599999964237213 0.0
0.0 -0.1599999964237213 0.0
0.0 0.05999999865889549 -0.0
0.05000000074505806 -0.1599999964237213 0.0
0.05000000074505806 0.05999999865889549 -0.0
-0.05000000074505806 -0.10999999940395355 0.0
-0.05000000074505806 0.10999999940395355 -0.0
0.0 0.10999999940395355 -0.0
0.0 -0.10999999940395355 0.0
0.05000000074505806 0.10999999940395355 -0.0
0.05000000074505806 -0.10999999940395355 0.0
-0.05000000074505806 0.1599999964237213 -0.0
-0.05000000074505806 -0.05999999865889549 0.0
0.0 0.1599999964237213 -0.0
0.0 -0.05999999865889549 0.0
0.05000000074505806 0.1599999964237213 -0.0
0.05000000074505806 -0.05999999865889549 0.0
CELLS 108 432
3 19 20 0
3 32 35 57
3 37 35 11
3 11 0 9
3 25 23 9
3 31 29 2
3 44 13 23
3 51 39 44
3 57 37 51
3 20 27 5
3 41 25 27
3 42 23 25
3 19 41 20
3 46 42 41
3 49 44 42
3 17 46 19
3 53 49 46
3 55 51 49
3 7 53 17
3 29 55 53
3 31 57 55
3 18 21 1
3 33 34 56
3 36 34 10
3 10 1 8
3 24 22 8
3 30 28 3
3 45 12 22
3 50 38 45
3 56 36 50
3 21 26 4
3 40 24 26
3 43 22 24
3 18 40 21
3 47 43 40
3 48 45 43
3 16 47 18
3 52 48 47
3 54 50 48
3 6 52 16
3 28 54 52
3 30 56 54
3 20 5 0
3 0 2 19
3 2 7 17
3 2 17 19
3 32 14 35
3 35 14 11
3 11 9 37
3 9 13 39
3 9 39 37
3 11 2 0
3 23 13 9
3 9 0 25
3 0 5 27
3 0 27 25
3 29 7 2
3 2 11 31
3 11 14 32
3 11 32 31
3 44 39 13
3 51 37 39
3 57 35 37
3 20 41 27
3 41 42 25
3 42 44 23
3 19 46 41
3 46 49 42
3 49 51 44
3 17 53 46
3 53 55 49
3 55 57 51
3 7 29 53
3 29 31 55
3 31 32 57
3 21 4 1
3 1 3 18
3 3 6 16
3 3 16 18
3 33 15 34
3 34 15 10
3 10 8 36
3 8 12 38
3 8 38 36
3 10 3 1
3 22 12 8
3 8 1 24
3 1 4 26
3 1 26 24
3 28 6 3
3 3 10 30
3 10 15 33
3 10 33 30
3 45 38 12
3 50 36 38
3 56 34 36
3 21 40 26
3 40 43 24
3 43 45 22
3 18 47 40
3 47 48 43
3 48 50 45
3 16 52 47
3 52 54 48
3 54 56 50
3 6 28 52
3 28 30 54
3 30 33 56
CELL_TYPES 108
5
5
5
5
5
5
5
5
5
5
5
5
5
5
5
5
5
5
5
5
5
5
5
5
5
5
5
5
5
5
5
5
5
5
5
5
5
5
5
5
5
5
5
5
5
5
5
5
5
5
5
5
5
5
5
5
5
5
5
5
5
5
5
5
5
5
5
5
5
5
5
5
5
5
5
5
5
5
5
5
5
5
5
5
5
5
5
5
5
5
5
5
5
5
5
5
5
5
5
5
5
5
5
5
5
5
5
5
CELL_DATA 108
SCALARS PowerDensity FLOAT
LOOKUP_TABLE default
0.00015420806325638093
0.0005373314588087286
0.00015396986617656247
0.00019830384739533174
0.00032847441578436737
0.00037592421769226106
0.00045900237996638563
0.0004980979576153881
0.0005251897922917649
0.0004622144105664162
0.0005046800188606756
0.0004986762333380719
0.000473152795103726
0.0005214742818035429
0.0005203835562646107
0.0004970298056625841
0.0005294660530946674
0.0005359825859047794
0.000516174295822152
0.0005598942913738668
0.0005709295285085277
0.00015639605650229045
0.0005206691529933099
0.00017112156325390054
0.00020644784739890968
0.00036816681190340585
0.0003424609310823647
0.0005294085963449552
0.0005324913986294661
0.0005411832298920046
0.000523603478417497
0.0005593876396426759
0.0005675482042230668
0.0005262102708964923
0.0005515449806170647
0.0005701508658965688
0.0005152083992314009
0.0005508297939020316
0.0005525626585613333
0.0004982259496565506
0.0005276236444131957
0.0005558647806821837
0.00016504106637140189
0.00015849760352224096
0.0001513614070726792
0.00015867241061574177
0.0005088022031224309
0.00015019635044728652
0.00015668099074193006
0.00016563744143854886
0.00015663229656704498
0.00019375395354649801
0.00033099008642458697
0.0003370331371143614
0.00031910018001613183
0.0003308965972870775
0.0003684122210243966
0.0003797413479239978
0.0003600478511791577
0.0003778880205284459
0.00046443681504442565
0.0004712679601289509
0.0004963004814678545
0.00046640806143504544
0.000515653638813352
0.0005052855662018897
0.0004933932185949106
0.0005324217457075543
0.0005167570957821281
0.0005234285129418618
0.0005628530585709838
0.0005536646172448123
0.0005282161848637002
0.0005639457095886709
0.0005545762451605959
0.0001517508362365392
0.00016693361146428822
0.00018399027442429327
0.00017131123025262204
0.0004921690279323858
0.00018038121891044673
0.00016500734402113683
0.00016113997612325387
0.0001548684052491252
0.00022493892587913898
0.0003648389139392898
0.00037358402427124934
0.0003653502375477698
0.0003644411481961484
0.000329792092247432
0.00033465119210718
0.0003326381212948258
0.00034028171311062416
0.0005153073057357197
0.000528475646676492
0.0005217779910414487
0.000530031167844132
0.0005651600979139439
0.000576826610707842
0.0005382126340953465
0.0005813027620077986
0.0005686752027117741
0.0005191930751140534
0.0005559128961600167
0.0005599485237780499
0.0005155830655364257
0.0005561751513906091
0.0005110235376327
SCALARS PowerDensityError FLOAT
LOOKUP_TABLE default
2.849863693655059e-06
6.920144275039601e-06
2.7281023820774435e-06
3.3200791890541953e-06
4.045412641581722e-06
4.559876671206728e-06
8.213726875058457e-06
8.597838464089023e-06
7.903882244809047e-06
8.100078996777461e-06
8.520484136570802e-06
8.611468861459258e-06
8.406440564532007e-06
8.897006230660747e-06
8.975187524276184e-06
7.732905880157367e-06
8.085733547715544e-06
8.150465366342519e-06
6.836181841476124e-06
7.059437369089032e-06
7.108488145146739e-06
2.7729335325305965e-06
8.431125536640134e-06
3.317188672284284e-06
3.4159706645459406e-06
4.652901853625627e-06
4.500177331600291e-06
6.40404696977338e-06
6.582982276284396e-06
7.471659802155909e-06
6.344107314720971e-06
6.766281720679442e-06
6.865915327081202e-06
6.521270236429301e-06
6.686267902405015e-06
6.903713413476241e-06
7.332917589599006e-06
7.600030658515782e-06
7.626063423821074e-06
8.235596391449328e-06
8.635170853266935e-06
8.752850159518597e-06
2.9728081555928263e-06
2.8453024759927517e-06
2.7146118134468685e-06
2.7258608784845556e-06
6.535332748873484e-06
2.705717476887348e-06
2.831765768218228e-06
2.990018739723707e-06
2.870364991448329e-06
3.1954371609805385e-06
4.037763152490488e-06
4.090388381828983e-06
4.001127890489858e-06
4.028068489110994e-06
4.4807411705363194e-06
4.593286687853973e-06
4.450681696099018e-06
4.5729158230328354e-06
8.325456645949861e-06
8.172063677831328e-06
7.3811929581294e-06
8.499821793296364e-06
8.834832777847367e-06
8.791761883914992e-06
8.405904722587925e-06
8.789378050147124e-06
8.670593059316881e-06
7.581368514904014e-06
7.821344246807018e-06
7.73482067153896e-06
6.630170329663081e-06
6.833579069806644e-06
6.760644900528262e-06
2.7364558383934833e-06
3.0532066200542297e-06
3.7303414030656527e-06
3.319933272564251e-06
8.454498461968352e-06
3.684858884727766e-06
3.034653166160466e-06
2.765496531083052e-06
2.7581645512315233e-06
4.054607650367941e-06
4.61136125250358e-06
4.668843543651472e-06
4.627686585961528e-06
4.630928628550038e-06
4.4769504213671576e-06
4.46925358392974e-06
4.4431087146758e-06
4.485564213163922e-06
6.242022067676033e-06
6.741839715419468e-06
7.686010334986868e-06
6.416866419904018e-06
6.840230747522295e-06
6.998744557414049e-06
6.799209611686293e-06
7.03869589526503e-06
6.984279249388184e-06
7.771178257212621e-06
8.0238726595739e-06
7.993335264206657e-06
8.691925947140733e-06
9.061525540853367e-06
8.892771809303057e-06
