# vtk DataFile Version 2.0
RaysectMesh
ASCII
DATASET UNSTRUCTURED_GRID
POINTS 58 float
-0.10000000149011612 -0.20999999344348907 0.004000000189989805
-0.10000000149011612 0.009999999776482582 0.004000000189989805
-0.10000000149011612 -0.009999999776482582 0.004000000189989805
-0.10000000149011612 0.20999999344348907 0.004000000189989805
-0.10000000149011612 0.009999999776482582 -0.0
-0.10000000149011612 -0.20999999344348907 0.0
-0.10000000149011612 0.20999999344348907 -0.0
-0.10000000149011612 -0.009999999776482582 0.0
0.10000000149011612 0.009999999776482582 0.004000000189989805
0.10000000149011612 -0.20999999344348907 0.004000000189989805
0.10000000149011612 0.20999999344348907 0.004000000189989805
0.10000000149011612 -0.009999999776482582 0.004000000189989805
0.10000000149011612 0.009999999776482582 -0.0
0.10000000149011612 -0.20999999344348907 0.0
0.10000000149011612 -0.009999999776482582 0.0
0.10000000149011612 0.20999999344348907 -0.0
-0.10000000149011612 0.1599999964237213 -0.0
-0.10000000149011612 -0.05999999865889549 0.0
-0.10000000149011612 0.10999999940395355 -0.0
-0.10000000149011612 -0.10999999940395355 0.0
-0.10000000149011612 -0.1599999964237213 0.0
-0.10000000149011612 0.05999999865889549 -0.0
0.05000000074505806 0.009999999776482582 -0.0
0.05000000074505806 -0.20999999344348907 0.0
0.0 0.009999999776482582 -0.0
0.0 -0.20999999344348907 0.0
-0.05000000074505806 0.009999999776482582 -0.0
-0.05000000074505806 -0.20999999344348907 0.0
-0.05000000074505806 0.20999999344348907 -0.0
-0.05000000074505806 -0.009999999776482582 0.0
0.0 0.20999999344348907 -0.0
0.0 -0.009999999776482582 0.0
0.05000000074505806 -0.009999999776482582 0.0
0.05000000074505806 0.20999999344348907 -0.0
0.10000000149011612 0.1599999964237213 -0.0
0.10000000149011612 -0.05999999865889549 0.0
0.10000000149011612 0.10999999940395355 -0.0
0.10000000149011612 -0.10999999940395355 0.0
0.10000000149011612 0.05999999865889549 -0.0
0.10000000149011612 -0.1599999964237213 0.0
-0.05000000074505806 0.05999999865889549 -0.0
-0.05000000074505806 -0.1599999964237213 0.0
0.0 -0.1599999964237213 0.0
0.0 0.05999999865889549 -0.0
0.05000000074505806 -0.1599999964237213 0.0
0.05000000074505806 0.05999999865889549 -0.0
-0.05000000074505806 -0.10999999940395355 0.0
-0.05000000074505806 0.10999999940395355 -0.0
0.0 0.10999999940395355 -0.0
0.0 -0.10999999940395355 0.0
0.05000000074505806 0.10999999940395355 -0.0
0.05000000074505806 -0.10999999940395355 0.0
-0.05000000074505806 0.1599999964237213 -0.0
-0.05000000074505806 -0.05999999865889549 0.0
0.0 0.1599999964237213 -0.0
0.0 -0.05999999865889549 0.0
0.05000000074505806 0.1599999964237213 -0.0
0.05000000074505806 -0.05999999865889549 0.0
CELLS 108 432
3 19 20 0
3 32 35 57
3 37 35 11
3 11 0 9
3 25 23 9
3 31 29 2
3 44 13 23
3 51 39 44
3 57 37 51
3 20 27 5
3 41 25 27
3 42 23 25
3 19 41 20
3 46 42 41
3 49 44 42
3 17 46 19
3 53 49 46
3 55 51 49
3 7 53 17
3 29 55 53
3 31 57 55
3 18 21 1
3 33 34 56
3 36 34 10
3 10 1 8
3 24 22 8
3 30 28 3
3 45 12 22
3 50 38 45
3 56 36 50
3 21 26 4
3 40 24 26
3 43 22 24
3 18 40 21
3 47 43 40
3 48 45 43
3 16 47 18
3 52 48 47
3 54 50 48
3 6 52 16
3 28 54 52
3 30 56 54
3 20 5 0
3 0 2 19
3 2 7 17
3 2 17 19
3 32 14 35
3 35 14 11
3 11 9 37
3 9 13 39
3 9 39 37
3 11 2 0
3 23 13 9
3 9 0 25
3 0 5 27
3 0 27 25
3 29 7 2
3 2 11 31
3 11 14 32
3 11 32 31
3 44 39 13
3 51 37 39
3 57 35 37
3 20 41 27
3 41 42 25
3 42 44 23
3 19 46 41
3 46 49 42
3 49 51 44
3 17 53 46
3 53 55 49
3 55 57 51
3 7 29 53
3 29 31 55
3 31 32 57
3 21 4 1
3 1 3 18
3 3 6 16
3 3 16 18
3 33 15 34
3 34 15 10
3 10 8 36
3 8 12 38
3 8 38 36
3 10 3 1
3 22 12 8
3 8 1 24
3 1 4 26
3 1 26 24
3 28 6 3
3 3 10 30
3 10 15 33
3 10 33 30
3 45 38 12
3 50 36 38
3 56 34 36
3 21 40 26
3 40 43 24
3 43 45 22
3 18 47 40
3 47 48 43
3 48 50 45
3 16 52 47
3 52 54 48
3 54 56 50
3 6 28 52
3 28 30 54
3 30 33 56
CELL_TYPES 108
5
5
5
5
5
5
5
5
5
5
5
5
5
5
5
5
5
5
5
5
5
5
5
5
5
5
5
5
5
5
5
5
5
5
5
5
5
5
5
5
5
5
5
5
5
5
5
5
5
5
5
5
5
5
5
5
5
5
5
5
5
5
5
5
5
5
5
5
5
5
5
5
5
5
5
5
5
5
5
5
5
5
5
5
5
5
5
5
5
5
5
5
5
5
5
5
5
5
5
5
5
5
5
5
5
5
5
5
CELL_DATA 108
SCALARS PowerDensity FLOAT
LOOKUP_TABLE default
0.0001839853873399994
0.00048504609674402196
0.00015441108738012708
0.00024398436823068603
0.00038185230336587194
0.00037052484307500294
0.0005155094512762718
0.0005067523606981883
0.0004939453501768959
0.00048733517134860337
0.0005185634158821044
0.0005392425311623356
0.00048158373589543617
0.0005226992506017113
0.0005170782303598666
0.0004839590329512239
0.0005117668729466262
0.0005056672515086526
0.00046367128839644916
0.0004966363656343642
0.0005044497827431766
0.00015693973380487186
0.0004899687261824631
0.00016837780799810594
0.0002066384787784015
0.0003954049862066338
0.00033377852998303864
0.000495066382915807
0.0004974951262187491
0.000490784697694554
0.0004778832227913531
0.0005080854754051063
0.0005148220217728543
0.0004894601135164622
0.0005125493925914566
0.0005240076789288399
0.0004906374415312076
0.0005083536388976514
0.0005402563160646085
0.0004925990570119897
0.0005161157475757342
0.0005260321175107175
0.00020128391261555031
0.00017345364069407346
0.00016152069077836632
0.00015975684503482317
0.0004702980427320338
0.00016597206881363918
0.00017403446264693614
0.0001992148330593791
0.00018837640344260672
0.00020995115066615487
0.0003769799411418849
0.00037745736836186986
0.00037678289806895756
0.0003834782685703183
0.0003604470843214454
0.00037191449756060957
0.00036667712265124434
0.000371250337270304
0.000483600130200212
0.0004859513207162004
0.0004664625999676318
0.0004969927254972042
0.0005303103145512535
0.0005392971259645904
0.0004954441567366851
0.000521741724026101
0.0005188277247913896
0.0004934900269433898
0.0005209250686547107
0.0005168513179561825
0.00048728790413156176
0.0005021625108783587
0.0005067332066615891
0.00016032845355505327
0.00016778955237849283
0.00017386721819827054
0.0001666012876475789
0.00046282442950082366
0.0001746902488868826
0.00016416668709368367
0.00015994521378733133
0.00016238959182652548
0.00021240332406000673
0.00038757520685694697
0.0003916821603670241
0.00038858256111688516
0.00038648035075302675
0.000324807399524134
0.00032642502239620987
0.00032211714900153016
0.00032864454626304533
0.00047096753945223145
0.00047903267639770716
0.0004936590586188612
0.00048165187500342143
0.0005121897617760668
0.000508734661738686
0.0004982783041268989
0.0005212866763229482
0.0005247521344564775
0.0005095647247875962
0.0005387796323839347
0.0005085029488173339
0.000493272661489397
0.0005341767965433502
0.0005105069430945319
SCALARS PowerDensityError FLOAT
LOOKUP_TABLE default
4.00658409621625e-06
5.65750063540346e-06
3.053191134546955e-06
4.951673760158223e-06
5.764659287624403e-06
4.450208843561451e-06
8.03448992159181e-06
6.841889303490724e-06
5.973489956738049e-06
7.883581420852733e-06
8.17027496773819e-06
8.276999214206997e-06
6.756123893555561e-06
6.996433596248755e-06
6.978731877732461e-06
5.8999482316225855e-06
6.069791294720735e-06
6.078106951175201e-06
5.468770867679139e-06
5.785605295860154e-06
5.874226316699279e-06
2.851589150125448e-06
8.346049174155883e-06
3.293384170699644e-06
3.517201476972989e-06
4.6077786742700075e-06
4.470960595207456e-06
5.770027093685685e-06
6.277468743496366e-06
7.2682818391469325e-06
5.581689668871793e-06
5.916511023668201e-06
5.996670030182783e-06
6.219636841330433e-06
6.369418532203024e-06
6.415196623943593e-06
7.147878457281795e-06
7.431616442451528e-06
7.534688657774249e-06
8.188661599169587e-06
8.564382201828872e-06
8.657035178298497e-06
4.39977361952961e-06
3.5696543633757146e-06
2.940236999602911e-06
3.08177430095732e-06
5.503980562534015e-06
2.963154229410983e-06
3.5660813448745566e-06
4.380381608619023e-06
4.0231610366753305e-06
4.047953258320679e-06
5.668586146904355e-06
5.764859402126541e-06
5.696252952881965e-06
5.768317899327582e-06
4.4100162556150166e-06
4.4756181985149835e-06
4.448047090502091e-06
4.446198673749379e-06
7.493451919655063e-06
6.420331349179622e-06
5.694271371419339e-06
7.592487256712463e-06
7.844925884928942e-06
7.802453462651397e-06
6.501728681035275e-06
6.6460918237175515e-06
6.639253769089688e-06
5.797797445858325e-06
6.08656190514532e-06
6.0181891796418325e-06
5.6809800879872785e-06
5.858812220475727e-06
5.905325929281004e-06
2.8829557062247367e-06
3.0836135156564764e-06
3.6557400536414224e-06
3.297603048662485e-06
8.365006284885176e-06
3.6540412795098317e-06
3.083456550502673e-06
2.898203764632507e-06
2.893583592175364e-06
3.999574800681336e-06
4.541106436470993e-06
4.565689142481975e-06
4.546569678273224e-06
4.530780171897914e-06
4.422302883734346e-06
4.453431981299044e-06
4.403984816946547e-06
4.443161638849771e-06
5.724351103534321e-06
6.472102455810895e-06
7.5532381160407225e-06
5.776696814842115e-06
5.9662328328352256e-06
5.944924534103489e-06
6.565589841995111e-06
6.708915476210144e-06
6.689260940759527e-06
7.669294271936934e-06
7.94955963315701e-06
7.801478993835766e-06
8.563408569074268e-06
8.962483639434169e-06
8.856754151606653e-06
