# vtk DataFile Version 2.0
RaysectMesh
ASCII
DATASET UNSTRUCTURED_GRID
POINTS 58 float
-0.10000000149011612 -0.20999999344348907 0.004000000189989805
-0.10000000149011612 0.009999999776482582 0.004000000189989805
-0.10000000149011612 -0.009999999776482582 0.004000000189989805
-0.10000000149011612 0.20999999344348907 0.004000000189989805
-0.10000000149011612 0.009999999776482582 -0.0
-0.10000000149011612 -0.20999999344348907 0.0
-0.10000000149011612 0.20999999344348907 -0.0
-0.10000000149011612 -0.009999999776482582 0.0
0.10000000149011612 0.009999999776482582 0.004000000189989805
0.10000000149011612 -0.20999999344348907 0.004000000189989805
0.10000000149011612 0.20999999344348907 0.004000000189989805
0.10000000149011612 -0.009999999776482582 0.004000000189989805
0.10000000149011612 0.009999999776482582 -0.0
0.10000000149011612 -0.20999999344348907 0.0
0.10000000149011612 -0.009999999776482582 0.0
0.10000000149011612 0.20999999344348907 -0.0
-0.10000000149011612 0.1599999964237213 -0.0
-0.10000000149011612 -0.05999999865889549 0.0
-0.10000000149011612 0.10999999940395355 -0.0
-0.10000000149011612 -0.10999999940395355 0.0
-0.10000000149011612 -0.1599999964237213 0.0
-0.10000000149011612 0.05999999865889549 -0.0
0.05000000074505806 0.009999999776482582 -0.0
0.05000000074505806 -0.20999999344348907 0.0
0.0 0.009999999776482582 -0.0
0.0 -0.20999999344348907 0.0
-0.05000000074505806 0.009999999776482582 -0.0
-0.05000000074505806 -0.20999999344348907 0.0
-0.05000000074505806 0.20999999344348907 -0.0
-0.05000000074505806 -0.009999999776482582 0.0
0.0 0.20999999344348907 -0.0
0.0 -0.009999999776482582 0.0
0.05000000074505806 -0.009999999776482582 0.0
0.05000000074505806 0.20999999344348907 -0.0
0.10000000149011612 0.1599999964237213 -0.0
0.10000000149011612 -0.05999999865889549 0.0
0.10000000149011612 0.10999999940395355 -0.0
0.10000000149011612 -0.10999999940395355 0.0
0.10000000149011612 0.05999999865889549 -0.0
0.10000000149011612 -0.1599999964237213 0.0
-0.05000000074505806 0.05999999865889549 -0.0
-0.05000000074505806 -0.1599999964237213 0.0
0.0 -0.1599999964237213 0.0
0.0 0.05999999865889549 -0.0
0.05000000074505806 -0.1599999964237213 0.0
0.05000000074505806 0.05999999865889549 -0.0
-0.05000000074505806 -0.10999999940395355 0.0
-0.05000000074505806 0.10999999940395355 -0.0
0.0 0.10999999940395355 -0.0
0.0 -0.10999999940395355 0.0
0.05000000074505806 0.10999999940395355 -0.0
0.05000000074505806 -0.10999999940395355 0.0
-0.05000000074505806 0.1599999964237213 -0.0
-0.05000000074505806 -0.05999999865889549 0.0
0.0 0.1599999964237213 -0.0
0.0 -0.05999999865889549 0.0
0.05000000074505806 0.1599999964237213 -0.0
0.05000000074505806 -0.05999999865889549 0.0
CELLS 108 432
3 19 20 0
3 32 35 57
3 37 35 11
3 11 0 9
3 25 23 9
3 31 29 2
3 44 13 23
3 51 39 44
3 57 37 51
3 20 27 5
3 41 25 27
3 42 23 25
3 19 41 20
3 46 42 41
3 49 44 42
3 17 46 19
3 53 49 46
3 55 51 49
3 7 53 17
3 29 55 53
3 31 57 55
3 18 21 1
3 33 34 56
3 36 34 10
3 10 1 8
3 24 22 8
3 30 28 3
3 45 12 22
3 50 38 45
3 56 36 50
3 21 26 4
3 40 24 26
3 43 22 24
3 18 40 21
3 47 43 40
3 48 45 43
3 16 47 18
3 52 48 47
3 54 50 48
3 6 52 16
3 28 54 52
3 30 56 54
3 20 5 0
3 0 2 19
3 2 7 17
3 2 17 19
3 32 14 35
3 35 14 11
3 11 9 37
3 9 13 39
3 9 39 37
3 11 2 0
3 23 13 9
3 9 0 25
3 0 5 27
3 0 27 25
3 29 7 2
3 2 11 31
3 11 14 32
3 11 32 31
3 44 39 13
3 51 37 39
3 57 35 37
3 20 41 27
3 41 42 25
3 42 44 23
3 19 46 41
3 46 49 42
3 49 51 44
3 17 53 46
3 53 55 49
3 55 57 51
3 7 29 53
3 29 31 55
3 31 32 57
3 21 4 1
3 1 3 18
3 3 6 16
3 3 16 18
3 33 15 34
3 34 15 10
3 10 8 36
3 8 12 38
3 8 38 36
3 10 3 1
3 22 12 8
3 8 1 24
3 1 4 26
3 1 26 24
3 28 6 3
3 3 10 30
3 10 15 33
3 10 33 30
3 45 38 12
3 50 36 38
3 56 34 36
3 21 40 26
3 40 43 24
3 43 45 22
3 18 47 40
3 47 48 43
3 48 50 45
3 16 52 47
3 52 54 48
3 54 56 50
3 6 28 52
3 28 30 54
3 30 33 56
CELL_TYPES 108
5
5
5
5
5
5
5
5
5
5
5
5
5
5
5
5
5
5
5
5
5
5
5
5
5
5
5
5
5
5
5
5
5
5
5
5
5
5
5
5
5
5
5
5
5
5
5
5
5
5
5
5
5
5
5
5
5
5
5
5
5
5
5
5
5
5
5
5
5
5
5
5
5
5
5
5
5
5
5
5
5
5
5
5
5
5
5
5
5
5
5
5
5
5
5
5
5
5
5
5
5
5
5
5
5
5
5
5
CELL_DATA 108
SCALARS PowerDensity FLOAT
LOOKUP_TABLE default
0.00015178905820095837
0.0005351094869580861
0.0001509640511831895
0.00019104215397946326
0.0003359787842294261
0.0003816716428344524
0.0004628168645895345
0.00047539213406033655
0.0004924099802470853
0.0004350858404644154
0.00045699239223541253
0.0004783023463004172
0.00045349219235895846
0.0004967061913822578
0.0005120984791469386
0.0004904895810839292
0.0005200439833243296
0.0005387952967617627
0.0004993300562419829
0.0005557224264902313
0.0005707893878480782
0.00016485775044227806
0.0005312697660365092
0.00017351948480533638
0.00020575917894870605
0.0003433358934018869
0.0003357140302611402
0.0005524869373384664
0.0005577716510502598
0.000554043287694818
0.000536450287906094
0.0005814532844846625
0.0005969801111111867
0.000546913249747468
0.0005739423453185223
0.000577678742917299
0.000532135807306035
0.0005816610293697342
0.0005853738736524984
0.0005050502631869534
0.0005568017435804746
0.0005632721900735485
0.00016043161412579982
0.0001563510840862678
0.0001520671204461496
0.00014973611093756166
0.0005293869156122433
0.00015208859485501056
0.00015565953688311018
0.000160501943349357
0.00015740569086744897
0.0001925992589631029
0.00032112815997920713
0.0003196649397310982
0.00031218567543938127
0.00032070970960156573
0.00036395801418538166
0.000386007670786682
0.00036814167962004936
0.0003864254322092876
0.0004382992639162938
0.00046689374294187205
0.0004925540645015168
0.00045817906718643726
0.0004711508149531482
0.00047250840066644215
0.0004828861742340356
0.0005132940833029834
0.0005138642236292987
0.0005165366718709319
0.0005271476352211213
0.0005376921518525859
0.0005358578516043469
0.0005750716943915305
0.000559756086980355
0.00015616934000356645
0.00017247719522545712
0.00017905114525645997
0.00017008768899093947
0.0005055160867637867
0.00017900110858121333
0.00017107571201471612
0.00015440910273253414
0.0001590414019713309
0.00021917834694277715
0.0003410183462288489
0.000336586172362932
0.00033095810306115164
0.0003305195294375357
0.0003409339572990928
0.0003409102878502352
0.0003346983692393221
0.0003362414052202432
0.0005478496004443969
0.0005355976797818927
0.0005292513262153658
0.0005437227355303784
0.0005977423791535185
0.0005836454238148698
0.0005619959468930109
0.0005967675065785128
0.0005807461705470907
0.0005666026806700376
0.0005804827028117658
0.000574254613447812
0.0005230389991435827
0.000557150729444235
0.000538438760032974
SCALARS PowerDensityError FLOAT
LOOKUP_TABLE default
2.662494723748258e-06
7.96736365692398e-06
2.6313073221644e-06
3.0562846399887472e-06
4.1173759538446495e-06
4.684156894575983e-06
7.065001194281864e-06
8.19300755916485e-06
8.58865354633772e-06
6.880094789756463e-06
7.159322798902652e-06
7.214919703944781e-06
7.998950909504794e-06
8.446676366720391e-06
8.480943439825966e-06
8.434539343825205e-06
8.876293819849159e-06
8.959461130306173e-06
7.787768161234417e-06
8.21540910450911e-06
8.316995356891267e-06
2.84420216819538e-06
8.533697377995369e-06
3.4170796165947027e-06
3.519911046699465e-06
4.745453769537558e-06
4.51375053786314e-06
6.976712955802388e-06
6.966547596378924e-06
7.64326756631618e-06
6.87417540633258e-06
7.1268447050250366e-06
7.366240019460507e-06
6.8912459619524915e-06
7.063393908389229e-06
7.093323254318679e-06
7.505697507273414e-06
7.819890743115605e-06
7.841609138901895e-06
8.362191940749313e-06
8.763020626575557e-06
8.854740846677808e-06
2.7237309356375544e-06
2.7065995982043747e-06
2.6681539776398004e-06
2.63525876817798e-06
7.565062262084606e-06
2.6596781796671103e-06
2.7089201294321936e-06
2.7125724810363293e-06
2.6614332754413306e-06
3.0373894105502693e-06
3.935045976828973e-06
3.917398567024693e-06
3.824878309410201e-06
3.933758141452421e-06
4.488333932938541e-06
4.733982153816271e-06
4.538139947422807e-06
4.736177156108284e-06
7.284870024946147e-06
8.258502302258054e-06
8.267537985751494e-06
7.406539157215897e-06
7.656758273508522e-06
7.63088314339533e-06
8.436797534033145e-06
8.790169853171964e-06
8.714781270208868e-06
8.485514575309191e-06
8.794235837334827e-06
8.746722937695089e-06
7.698431650521197e-06
7.964042668085894e-06
7.868613663982534e-06
2.7420129796605073e-06
3.162240211375319e-06
3.758335396588835e-06
3.3872443635239378e-06
8.60517720236232e-06
3.7483978507615775e-06
3.1501921934651023e-06
2.741071932118964e-06
2.832866295075661e-06
4.1979311083349065e-06
4.684592500208326e-06
4.782189057823732e-06
4.654303182516621e-06
4.713475174289562e-06
4.543740311280854e-06
4.525940488873132e-06
4.480985117246817e-06
4.495385310390735e-06
6.808384061911668e-06
7.053841702418157e-06
7.8089770653591e-06
6.86335926167611e-06
7.32531430160953e-06
7.1555266637768285e-06
7.143150215495265e-06
7.335897648222405e-06
7.2462267620858735e-06
7.98865119613436e-06
8.223543319416862e-06
8.145179602402423e-06
8.721510057108323e-06
9.111517547425814e-06
8.9992640951767e-06
