# vtk DataFile Version 2.0
RaysectMesh
ASCII
DATASET UNSTRUCTURED_GRID
POINTS 58 float
-0.10000000149011612 -0.20999999344348907 0.004000000189989805
-0.10000000149011612 0.009999999776482582 0.004000000189989805
-0.10000000149011612 -0.009999999776482582 0.004000000189989805
-0.10000000149011612 0.20999999344348907 0.004000000189989805
-0.10000000149011612 0.009999999776482582 -0.0
-0.10000000149011612 -0.20999999344348907 0.0
-0.10000000149011612 0.20999999344348907 -0.0
-0.10000000149011612 -0.009999999776482582 0.0
0.10000000149011612 0.009999999776482582 0.004000000189989805
0.10000000149011612 -0.20999999344348907 0.004000000189989805
0.10000000149011612 0.20999999344348907 0.004000000189989805
0.10000000149011612 -0.009999999776482582 0.004000000189989805
0.10000000149011612 0.009999999776482582 -0.0
0.10000000149011612 -0.20999999344348907 0.0
0.10000000149011612 -0.009999999776482582 0.0
0.10000000149011612 0.20999999344348907 -0.0
-0.10000000149011612 0.1599999964237213 -0.0
-0.10000000149011612 -0.05999999865889549 0.0
-0.10000000149011612 0.10999999940395355 -0.0
-0.10000000149011612 -0.10999999940395355 0.0
-0.10000000149011612 -0.1599999964237213 0.0
-0.10000000149011612 0.05999999865889549 -0.0
0.05000000074505806 0.009999999776482582 -0.0
0.05000000074505806 -0.20999999344348907 0.0
0.0 0.009999999776482582 -0.0
0.0 -0.20999999344348907 0.0
-0.05000000074505806 0.009999999776482582 -0.0
-0.05000000074505806 -0.20999999344348907 0.0
-0.05000000074505806 0.20999999344348907 -0.0
-0.05000000074505806 -0.009999999776482582 0.0
0.0 0.20999999344348907 -0.0
0.0 -0.009999999776482582 0.0
0.05000000074505806 -0.009999999776482582 0.0
0.05000000074505806 0.20999999344348907 -0.0
0.10000000149011612 0.1599999964237213 -0.0
0.10000000149011612 -0.05999999865889549 0.0
0.10000000149011612 0.10999999940395355 -0.0
0.10000000149011612 -0.10999999940395355 0.0
0.10000000149011612 0.05999999865889549 -0.0
0.10000000149011612 -0.1599999964237213 0.0
-0.05000000074505806 0.05999999865889549 -0.0
-0.05000000074505806 -0.1599999964237213 0.0
0.0 -0.1599999964237213 0.0
0.0 0.05999999865889549 -0.0
0.05000000074505806 -0.1599999964237213 0.0
0.05000000074505806 0.05999999865889549 -0.0
-0.05000000074505806 -0.10999999940395355 0.0
-0.05000000074505806 0.10999999940395355 -0.0
0.0 0.10999999940395355 -0.0
0.0 -0.10999999940395355 0.0
0.05000000074505806 0.10999999940395355 -0.0
0.05000000074505806 -0.10999999940395355 0.0
-0.05000000074505806 0.1599999964237213 -0.0
-0.05000000074505806 -0.05999999865889549 0.0
0.0 0.1599999964237213 -0.0
0.0 -0.05999999865889549 0.0
0.05000000074505806 0.1599999964237213 -0.0
0.05000000074505806 -0.05999999865889549 0.0
CELLS 108 432
3 19 20 0
3 32 35 57
3 37 35 11
3 11 0 9
3 25 23 9
3 31 29 2
3 44 13 23
3 51 39 44
3 57 37 51
3 20 27 5
3 41 25 27
3 42 23 25
3 19 41 20
3 46 42 41
3 49 44 42
3 17 46 19
3 53 49 46
3 55 51 49
3 7 53 17
3 29 55 53
3 31 57 55
3 18 21 1
3 33 34 56
3 36 34 10
3 10 1 8
3 24 22 8
3 30 28 3
3 45 12 22
3 50 38 45
3 56 36 50
3 21 26 4
3 40 24 26
3 43 22 24
3 18 40 21
3 47 43 40
3 48 45 43
3 16 47 18
3 52 48 47
3 54 50 48
3 6 52 16
3 28 54 52
3 30 56 54
3 20 5 0
3 0 2 19
3 2 7 17
3 2 17 19
3 32 14 35
3 35 14 11
3 11 9 37
3 9 13 39
3 9 39 37
3 11 2 0
3 23 13 9
3 9 0 25
3 0 5 27
3 0 27 25
3 29 7 2
3 2 11 31
3 11 14 32
3 11 32 31
3 44 39 13
3 51 37 39
3 57 35 37
3 20 41 27
3 41 42 25
3 42 44 23
3 19 46 41
3 46 49 42
3 49 51 44
3 17 53 46
3 53 55 49
3 55 57 51
3 7 29 53
3 29 31 55
3 31 32 57
3 21 4 1
3 1 3 18
3 3 6 16
3 3 16 18
3 33 15 34
3 34 15 10
3 10 8 36
3 8 12 38
3 8 38 36
3 10 3 1
3 22 12 8
3 8 1 24
3 1 4 26
3 1 26 24
3 28 6 3
3 3 10 30
3 10 15 33
3 10 33 30
3 45 38 12
3 50 36 38
3 56 34 36
3 21 40 26
3 40 43 24
3 43 45 22
3 18 47 40
3 47 48 43
3 48 50 45
3 16 52 47
3 52 54 48
3 54 56 50
3 6 28 52
3 28 30 54
3 30 33 56
CELL_TYPES 108
5
5
5
5
5
5
5
5
5
5
5
5
5
5
5
5
5
5
5
5
5
5
5
5
5
5
5
5
5
5
5
5
5
5
5
5
5
5
5
5
5
5
5
5
5
5
5
5
5
5
5
5
5
5
5
5
5
5
5
5
5
5
5
5
5
5
5
5
5
5
5
5
5
5
5
5
5
5
5
5
5
5
5
5
5
5
5
5
5
5
5
5
5
5
5
5
5
5
5
5
5
5
5
5
5
5
5
5
CELL_DATA 108
SCALARS PowerDensity FLOAT
LOOKUP_TABLE default
0.0001742499725932409
0.000507937955461389
0.0001545942949712075
0.00020263048253089857
0.0003371142263108082
0.00035833652178550847
0.0005024470421174144
0.0005097627002955841
0.0005155422207927434
0.00047194229114352925
0.0005291894076882487
0.0005465345620777078
0.0004845258691694752
0.0005495562785814695
0.0005404554730374999
0.000490485088121106
0.0005375382134965651
0.0005114206033397764
0.0004816600127249005
0.0005413826785466864
0.0005471072245588876
0.00015523282756459231
0.0004831377838363752
0.00016187330250397785
0.0001935362140665543
0.00038720460651782895
0.000319018585538884
0.0005015975498332702
0.0005184300594063985
0.0005207640729699521
0.0004747510954664254
0.0005248895739127517
0.0005478495880851937
0.000507919887069547
0.0005354685419110945
0.000548063499853861
0.0005142539980189205
0.000525539781989126
0.0005460292313238296
0.0004924777960279772
0.0005374413468190719
0.0005296457728100281
0.00018519762957641488
0.00016361594066250303
0.00016158532887955118
0.00015938524393296034
0.0004990703796825141
0.00015718115538531456
0.00015814992088925827
0.00017215164180501617
0.00016168652034997862
0.00019681545109852738
0.0003270737414403786
0.00032844304421525655
0.0003185708073263706
0.0003416896507510164
0.00034961200202531873
0.0003722868695180643
0.0003673253666013051
0.00037488376542662454
0.0004969230564680247
0.0005037069334269958
0.0004975992463405534
0.0005088600838761437
0.000527197464687693
0.0005406155091666776
0.0005256524382744452
0.0005275961859238483
0.0005489246243329696
0.0005284942935359277
0.0005592298128328951
0.0005438146686786775
0.0005018514602306728
0.0005282826473343716
0.0005242532356121326
0.00016359936169914522
0.00016864907460461385
0.00018339925377728008
0.00016761627625755198
0.0004844974424664106
0.0001739864597373236
0.0001546263560738304
0.00015461104270258523
0.00015788781530070095
0.00021996715778403234
0.0003830000847581382
0.0003928971915499256
0.00036939667132990494
0.0003939610889421564
0.0003364097684716553
0.0003347061588037045
0.00033586588236081465
0.00032790212123961544
0.00047684488670193516
0.00048665043324553654
0.0005002145306656633
0.0005096648643408326
0.0005382535250808653
0.000525328968353564
0.0005089072906398134
0.0005570078206855124
0.0005305130055190726
0.0004981641796911479
0.0005354012095230805
0.0005280258076799902
0.0004857660230105047
0.0005519476929369894
0.0004997590864364037
SCALARS PowerDensityError FLOAT
LOOKUP_TABLE default
5.2788105137472665e-06
9.071522348729754e-06
4.337587057555865e-06
6.217183218398893e-06
7.371382671042641e-06
6.933573262373776e-06
1.3217214149400479e-05
1.1918270300476854e-05
1.0187820899899883e-05
1.3287626581311912e-05
1.3666509851807757e-05
1.378080870683403e-05
1.1578041837247366e-05
1.2242732880298294e-05
1.209823824235309e-05
1.000584405732635e-05
1.0391702181385919e-05
1.0322041741448118e-05
8.92985234330626e-06
9.604667713113179e-06
9.711479649150468e-06
4.260280412220623e-06
1.2654114868654317e-05
4.982036357157772e-06
5.1689150016090305e-06
6.879948865135194e-06
6.738444006901886e-06
8.955445742123782e-06
9.602707910247761e-06
1.114296695012919e-05
8.761819886070534e-06
9.306785897293734e-06
9.714715443555482e-06
9.506133645941756e-06
9.758619103372716e-06
9.929660707725262e-06
1.0922090095044887e-05
1.1307139958522667e-05
1.1402298525543553e-05
1.240169312135552e-05
1.303668915423451e-05
1.3222228206171206e-05
5.818200470794044e-06
5.04002643206883e-06
4.32136950574406e-06
4.4086617673728425e-06
8.88243340359151e-06
4.407575658640591e-06
4.781267113423712e-06
5.916333692436264e-06
5.125212988306228e-06
5.317272361406887e-06
6.935079704490286e-06
7.04488992529444e-06
6.9054826203290285e-06
7.036134099142218e-06
6.673384484658677e-06
6.799391144266022e-06
6.740292598044586e-06
6.732678526862013e-06
1.2851839615885318e-05
1.101848688528799e-05
9.57596894665024e-06
1.2861105809493562e-05
1.3285982288296729e-05
1.3333241952204656e-05
1.145595659332606e-05
1.1534101021491961e-05
1.1628833752498947e-05
9.774380606000934e-06
1.0026422108419892e-05
9.950310795660066e-06
8.972191439311035e-06
9.369711396749058e-06
9.320422078345094e-06
4.266286093266452e-06
4.673708646979298e-06
5.548173821031992e-06
5.013207181846748e-06
1.2738653773955961e-05
5.483205998497978e-06
4.6039165022383636e-06
4.263908974010386e-06
4.293950305250823e-06
6.094571374559297e-06
6.9267730646576525e-06
6.978362710591106e-06
6.816182699193398e-06
7.062969902822995e-06
6.729307379434723e-06
6.778006909195835e-06
6.744029172366176e-06
6.7954957472502876e-06
8.96405611946769e-06
9.876449300371425e-06
1.1616328952927874e-05
9.127198884945812e-06
9.555156613638954e-06
9.419036979011947e-06
9.986413472320098e-06
1.0262212056076123e-05
1.0214242258269955e-05
1.173261690733022e-05
1.200667975346923e-05
1.1924491506842999e-05
1.2997260585792386e-05
1.3716740037765502e-05
1.3368115694477168e-05
