# vtk DataFile Version 2.0
RaysectMesh
ASCII
DATASET UNSTRUCTURED_GRID
POINTS 250 float
0.10000000149011612 -0.009999999776482582 0.0
0.10000000149011612 -0.20999999344348907 0.0
0.10000000149011612 -0.009999999776482582 0.004000000189989805
0.10000000149011612 -0.20999999344348907 0.004000000189989805
-0.10000000149011612 -0.009999999776482582 0.0
-0.10000000149011612 -0.20999999344348907 0.0
-0.10000000149011612 -0.009999999776482582 0.004000000189989805
-0.10000000149011612 -0.20999999344348907 0.004000000189989805
0.07999999821186066 -0.20999999344348907 0.0
0.05999999865889549 -0.20999999344348907 0.0
0.03999999910593033 -0.20999999344348907 0.0
0.019999999552965164 -0.20999999344348907 0.0
0.0 -0.20999999344348907 0.0
-0.019999999552965164 -0.20999999344348907 0.0
-0.03999999910593033 -0.20999999344348907 0.0
-0.05999999865889549 -0.20999999344348907 0.0
-0.07999999821186066 -0.20999999344348907 0.0
0.10000000149011612 -0.029999999329447746 0.0
0.10000000149011612 -0.05000000074505806 0.0
0.10000000149011612 -0.07000000029802322 0.0
0.10000000149011612 -0.09000000357627869 0.0
0.10000000149011612 -0.10999999940395355 0.0
0.10000000149011612 -0.12999999523162842 0.0
0.10000000149011612 -0.15000000596046448 0.0
0.10000000149011612 -0.17000000178813934 0.0
0.10000000149011612 -0.1899999976158142 0.0
-0.10000000149011612 -0.029999999329447746 0.0
-0.10000000149011612 -0.05000000074505806 0.0
-0.10000000149011612 -0.07000000029802322 0.0
-0.10000000149011612 -0.09000000357627869 0.0
-0.10000000149011612 -0.10999999940395355 0.0
-0.10000000149011612 -0.12999999523162842 0.0
-0.10000000149011612 -0.15000000596046448 0.0
-0.10000000149011612 -0.17000000178813934 0.0
-0.10000000149011612 -0.1899999976158142 0.0
-0.07999999821186066 -0.009999999776482582 0.0
-0.05999999865889549 -0.009999999776482582 0.0
-0.03999999910593033 -0.009999999776482582 0.0
-0.019999999552965164 -0.009999999776482582 0.0
0.0 -0.009999999776482582 0.0
0.019999999552965164 -0.009999999776482582 0.0
0.03999999910593033 -0.009999999776482582 0.0
0.05999999865889549 -0.009999999776482582 0.0
0.07999999821186066 -0.009999999776482582 0.0
-0.07999999821186066 -0.1899999976158142 0.0
-0.05999999865889549 -0.1899999976158142 0.0
-0.03999999910593033 -0.1899999976158142 0.0
-0.019999999552965164 -0.1899999976158142 0.0
0.0 -0.1899999976158142 0.0
0.019999999552965164 -0.1899999976158142 0.0
0.03999999910593033 -0.1899999976158142 0.0
0.05999999865889549 -0.1899999976158142 0.0
0.07999999821186066 -0.1899999976158142 0.0
-0.07999999821186066 -0.17000000178813934 0.0
-0.05999999865889549 -0.17000000178813934 0.0
-0.03999999910593033 -0.17000000178813934 0.0
-0.019999999552965164 -0.17000000178813934 0.0
0.0 -0.17000000178813934 0.0
0.019999999552965164 -0.17000000178813934 0.0
0.03999999910593033 -0.17000000178813934 0.0
0.05999999865889549 -0.17000000178813934 0.0
0.07999999821186066 -0.17000000178813934 0.0
-0.07999999821186066 -0.15000000596046448 0.0
-0.05999999865889549 -0.15000000596046448 0.0
-0.03999999910593033 -0.15000000596046448 0.0
-0.019999999552965164 -0.15000000596046448 0.0
0.0 -0.15000000596046448 0.0
0.019999999552965164 -0.15000000596046448 0.0
0.03999999910593033 -0.15000000596046448 0.0
0.05999999865889549 -0.15000000596046448 0.0
0.07999999821186066 -0.15000000596046448 0.0
-0.07999999821186066 -0.12999999523162842 0.0
-0.05999999865889549 -0.12999999523162842 0.0
-0.03999999910593033 -0.12999999523162842 0.0
-0.019999999552965164 -0.12999999523162842 0.0
0.0 -0.12999999523162842 0.0
0.019999999552965164 -0.12999999523162842 0.0
0.03999999910593033 -0.12999999523162842 0.0
0.05999999865889549 -0.12999999523162842 0.0
0.07999999821186066 -0.12999999523162842 0.0
-0.07999999821186066 -0.10999999940395355 0.0
-0.05999999865889549 -0.10999999940395355 0.0
-0.03999999910593033 -0.10999999940395355 0.0
-0.019999999552965164 -0.10999999940395355 0.0
0.0 -0.10999999940395355 0.0
0.019999999552965164 -0.10999999940395355 0.0
0.03999999910593033 -0.10999999940395355 0.0
0.05999999865889549 -0.10999999940395355 0.0
0.07999999821186066 -0.10999999940395355 0.0
-0.07999999821186066 -0.09000000357627869 0.0
-0.05999999865889549 -0.09000000357627869 0.0
-0.03999999910593033 -0.09000000357627869 0.0
-0.019999999552965164 -0.09000000357627869 0.0
0.0 -0.09000000357627869 0.0
0.019999999552965164 -0.09000000357627869 0.0
0.03999999910593033 -0.09000000357627869 0.0
0.05999999865889549 -0.09000000357627869 0.0
0.07999999821186066 -0.09000000357627869 0.0
-0.07999999821186066 -0.07000000029802322 0.0
-0.05999999865889549 -0.07000000029802322 0.0
-0.03999999910593033 -0.07000000029802322 0.0
-0.019999999552965164 -0.07000000029802322 0.0
0.0 -0.07000000029802322 0.0
0.019999999552965164 -0.07000000029802322 0.0
0.03999999910593033 -0.07000000029802322 0.0
0.05999999865889549 -0.07000000029802322 0.0
0.07999999821186066 -0.07000000029802322 0.0
-0.07999999821186066 -0.05000000074505806 0.0
-0.05999999865889549 -0.05000000074505806 0.0
-0.03999999910593033 -0.05000000074505806 0.0
-0.019999999552965164 -0.05000000074505806 0.0
0.0 -0.05000000074505806 0.0
0.019999999552965164 -0.05000000074505806 0.0
0.03999999910593033 -0.05000000074505806 0.0
0.05999999865889549 -0.05000000074505806 0.0
0.07999999821186066 -0.05000000074505806 0.0
-0.07999999821186066 -0.029999999329447746 0.0
-0.05999999865889549 -0.029999999329447746 0.0
-0.03999999910593033 -0.029999999329447746 0.0
-0.019999999552965164 -0.029999999329447746 0.0
0.0 -0.029999999329447746 0.0
0.019999999552965164 -0.029999999329447746 0.0
0.03999999910593033 -0.029999999329447746 0.0
0.05999999865889549 -0.029999999329447746 0.0
0.07999999821186066 -0.029999999329447746 0.0
0.10000000149011612 0.20999999344348907 -0.0
0.10000000149011612 0.009999999776482582 -0.0
0.10000000149011612 0.20999999344348907 0.004000000189989805
0.10000000149011612 0.009999999776482582 0.004000000189989805
-0.10000000149011612 0.20999999344348907 -0.0
-0.10000000149011612 0.009999999776482582 -0.0
-0.10000000149011612 0.20999999344348907 0.004000000189989805
-0.10000000149011612 0.009999999776482582 0.004000000189989805
0.07999999821186066 0.009999999776482582 -0.0
0.05999999865889549 0.009999999776482582 -0.0
0.03999999910593033 0.009999999776482582 -0.0
0.019999999552965164 0.009999999776482582 -0.0
0.0 0.009999999776482582 -0.0
-0.019999999552965164 0.009999999776482582 -0.0
-0.03999999910593033 0.009999999776482582 -0.0
-0.05999999865889549 0.009999999776482582 -0.0
-0.07999999821186066 0.009999999776482582 -0.0
0.10000000149011612 0.1899999976158142 -0.0
0.10000000149011612 0.17000000178813934 -0.0
0.10000000149011612 0.15000000596046448 -0.0
0.10000000149011612 0.12999999523162842 -0.0
0.10000000149011612 0.10999999940395355 -0.0
0.10000000149011612 0.09000000357627869 -0.0
0.10000000149011612 0.07000000029802322 -0.0
0.10000000149011612 0.05000000074505806 -0.0
0.10000000149011612 0.029999999329447746 -0.0
-0.10000000149011612 0.1899999976158142 -0.0
-0.10000000149011612 0.17000000178813934 -0.0
-0.10000000149011612 0.15000000596046448 -0.0
-0.10000000149011612 0.12999999523162842 -0.0
-0.10000000149011612 0.10999999940395355 -0.0
-0.10000000149011612 0.09000000357627869 -0.0
-0.10000000149011612 0.07000000029802322 -0.0
-0.10000000149011612 0.05000000074505806 -0.0
-0.10000000149011612 0.029999999329447746 -0.0
-0.07999999821186066 0.20999999344348907 -0.0
-0.05999999865889549 0.20999999344348907 -0.0
-0.03999999910593033 0.20999999344348907 -0.0
-0.019999999552965164 0.20999999344348907 -0.0
0.0 0.20999999344348907 -0.0
0.019999999552965164 0.20999999344348907 -0.0
0.03999999910593033 0.20999999344348907 -0.0
0.05999999865889549 0.20999999344348907 -0.0
0.07999999821186066 0.20999999344348907 -0.0
-0.07999999821186066 0.029999999329447746 -0.0
-0.05999999865889549 0.029999999329447746 -0.0
-0.03999999910593033 0.029999999329447746 -0.0
-0.019999999552965164 0.029999999329447746 -0.0
0.0 0.029999999329447746 -0.0
0.019999999552965164 0.029999999329447746 -0.0
0.03999999910593033 0.029999999329447746 -0.0
0.05999999865889549 0.029999999329447746 -0.0
0.07999999821186066 0.029999999329447746 -0.0
-0.07999999821186066 0.05000000074505806 -0.0
-0.05999999865889549 0.05000000074505806 -0.0
-0.03999999910593033 0.05000000074505806 -0.0
-0.019999999552965164 0.05000000074505806 -0.0
0.0 0.05000000074505806 -0.0
0.019999999552965164 0.05000000074505806 -0.0
0.03999999910593033 0.05000000074505806 -0.0
0.05999999865889549 0.05000000074505806 -0.0
0.07999999821186066 0.05000000074505806 -0.0
-0.07999999821186066 0.07000000029802322 -0.0
-0.05999999865889549 0.07000000029802322 -0.0
-0.03999999910593033 0.07000000029802322 -0.0
-0.019999999552965164 0.07000000029802322 -0.0
0.0 0.07000000029802322 -0.0
0.019999999552965164 0.07000000029802322 -0.0
0.03999999910593033 0.07000000029802322 -0.0
0.05999999865889549 0.07000000029802322 -0.0
0.07999999821186066 0.07000000029802322 -0.0
-0.07999999821186066 0.09000000357627869 -0.0
-0.05999999865889549 0.09000000357627869 -0.0
-0.03999999910593033 0.09000000357627869 -0.0
-0.019999999552965164 0.09000000357627869 -0.0
0.0 0.09000000357627869 -0.0
0.019999999552965164 0.09000000357627869 -0.0
0.03999999910593033 0.09000000357627869 -0.0
0.05999999865889549 0.09000000357627869 -0.0
0.07999999821186066 0.09000000357627869 -0.0
-0.07999999821186066 0.10999999940395355 -0.0
-0.05999999865889549 0.10999999940395355 -0.0
-0.03999999910593033 0.10999999940395355 -0.0
-0.019999999552965164 0.10999999940395355 -0.0
0.0 0.10999999940395355 -0.0
0.019999999552965164 0.10999999940395355 -0.0
0.03999999910593033 0.10999999940395355 -0.0
0.05999999865889549 0.10999999940395355 -0.0
0.07999999821186066 0.10999999940395355 -0.0
-0.07999999821186066 0.12999999523162842 -0.0
-0.05999999865889549 0.12999999523162842 -0.0
-0.03999999910593033 0.12999999523162842 -0.0
-0.019999999552965164 0.12999999523162842 -0.0
0.0 0.12999999523162842 -0.0
0.019999999552965164 0.12999999523162842 -0.0
0.03999999910593033 0.12999999523162842 -0.0
0.05999999865889549 0.12999999523162842 -0.0
0.07999999821186066 0.12999999523162842 -0.0
-0.07999999821186066 0.15000000596046448 -0.0
-0.05999999865889549 0.15000000596046448 -0.0
-0.03999999910593033 0.15000000596046448 -0.0
-0.019999999552965164 0.15000000596046448 -0.0
0.0 0.15000000596046448 -0.0
0.019999999552965164 0.15000000596046448 -0.0
0.03999999910593033 0.15000000596046448 -0.0
0.05999999865889549 0.15000000596046448 -0.0
0.07999999821186066 0.15000000596046448 -0.0
-0.07999999821186066 0.17000000178813934 -0.0
-0.05999999865889549 0.17000000178813934 -0.0
-0.03999999910593033 0.17000000178813934 -0.0
-0.019999999552965164 0.17000000178813934 -0.0
0.0 0.17000000178813934 -0.0
0.019999999552965164 0.17000000178813934 -0.0
0.03999999910593033 0.17000000178813934 -0.0
0.05999999865889549 0.17000000178813934 -0.0
0.07999999821186066 0.17000000178813934 -0.0
-0.07999999821186066 0.1899999976158142 -0.0
-0.05999999865889549 0.1899999976158142 -0.0
-0.03999999910593033 0.1899999976158142 -0.0
-0.019999999552965164 0.1899999976158142 -0.0
0.0 0.1899999976158142 -0.0
0.019999999552965164 0.1899999976158142 -0.0
0.03999999910593033 0.1899999976158142 -0.0
0.05999999865889549 0.1899999976158142 -0.0
0.07999999821186066 0.1899999976158142 -0.0
CELLS 492 1968
3 2 40 39
3 2 7 3
3 6 29 30
3 7 13 12
3 3 22 21
3 43 17 124
3 52 1 8
3 61 25 52
3 70 24 61
3 79 23 70
3 88 22 79
3 97 21 88
3 106 20 97
3 115 19 106
3 124 18 115
3 34 16 5
3 44 15 16
3 45 14 15
3 14 47 13
3 47 12 13
3 48 11 12
3 11 50 10
3 50 9 10
3 51 8 9
3 33 44 34
3 53 45 44
3 54 46 45
3 55 47 46
3 56 48 47
3 57 49 48
3 58 50 49
3 59 51 50
3 60 52 51
3 32 53 33
3 62 54 53
3 63 55 54
3 64 56 55
3 65 57 56
3 66 58 57
3 67 59 58
3 68 60 59
3 69 61 60
3 31 62 32
3 71 63 62
3 72 64 63
3 73 65 64
3 74 66 65
3 75 67 66
3 76 68 67
3 77 69 68
3 78 70 69
3 30 71 31
3 80 72 71
3 81 73 72
3 82 74 73
3 83 75 74
3 84 76 75
3 85 77 76
3 86 78 77
3 87 79 78
3 29 80 30
3 89 81 80
3 90 82 81
3 91 83 82
3 92 84 83
3 93 85 84
3 94 86 85
3 95 87 86
3 96 88 87
3 28 89 29
3 98 90 89
3 99 91 90
3 100 92 91
3 101 93 92
3 102 94 93
3 103 95 94
3 104 96 95
3 105 97 96
3 27 98 28
3 107 99 98
3 108 100 99
3 109 101 100
3 110 102 101
3 111 103 102
3 112 104 103
3 113 105 104
3 114 106 105
3 26 107 27
3 116 108 107
3 117 109 108
3 118 110 109
3 119 111 110
3 120 112 111
3 121 113 112
3 122 114 113
3 123 115 114
3 4 116 26
3 35 117 116
3 36 118 117
3 37 119 118
3 38 120 119
3 39 121 120
3 40 122 121
3 41 123 122
3 42 124 123
3 2 0 43
3 2 43 42
3 4 6 35
3 6 2 39
3 35 6 36
3 36 6 37
3 2 42 41
3 2 41 40
3 37 6 38
3 38 6 39
3 2 6 7
3 5 7 34
3 7 6 30
3 34 7 33
3 6 4 26
3 6 26 27
3 33 7 32
3 32 7 31
3 6 27 28
3 6 28 29
3 31 7 30
3 7 5 16
3 7 16 15
3 1 3 8
3 3 7 12
3 8 3 9
3 9 3 10
3 7 15 14
3 7 14 13
3 10 3 11
3 11 3 12
3 3 1 25
3 3 25 24
3 0 2 17
3 2 3 21
3 17 2 18
3 18 2 19
3 3 24 23
3 3 23 22
3 19 2 20
3 20 2 21
3 43 0 17
3 52 25 1
3 61 24 25
3 70 23 24
3 79 22 23
3 88 21 22
3 97 20 21
3 106 19 20
3 115 18 19
3 124 17 18
3 34 44 16
3 44 45 15
3 45 46 14
3 14 46 47
3 47 48 12
3 48 49 11
3 11 49 50
3 50 51 9
3 51 52 8
3 33 53 44
3 53 54 45
3 54 55 46
3 55 56 47
3 56 57 48
3 57 58 49
3 58 59 50
3 59 60 51
3 60 61 52
3 32 62 53
3 62 63 54
3 63 64 55
3 64 65 56
3 65 66 57
3 66 67 58
3 67 68 59
3 68 69 60
3 69 70 61
3 31 71 62
3 71 72 63
3 72 73 64
3 73 74 65
3 74 75 66
3 75 76 67
3 76 77 68
3 77 78 69
3 78 79 70
3 30 80 71
3 80 81 72
3 81 82 73
3 82 83 74
3 83 84 75
3 84 85 76
3 85 86 77
3 86 87 78
3 87 88 79
3 29 89 80
3 89 90 81
3 90 91 82
3 91 92 83
3 92 93 84
3 93 94 85
3 94 95 86
3 95 96 87
3 96 97 88
3 28 98 89
3 98 99 90
3 99 100 91
3 100 101 92
3 101 102 93
3 102 103 94
3 103 104 95
3 104 105 96
3 105 106 97
3 27 107 98
3 107 108 99
3 108 109 100
3 109 110 101
3 110 111 102
3 111 112 103
3 112 113 104
3 113 114 105
3 114 115 106
3 26 116 107
3 116 117 108
3 117 118 109
3 118 119 110
3 119 120 111
3 120 121 112
3 121 122 113
3 122 123 114
3 123 124 115
3 4 35 116
3 35 36 117
3 36 37 118
3 37 38 119
3 38 39 120
3 39 40 121
3 40 41 122
3 41 42 123
3 42 43 124
3 127 165 164
3 127 132 128
3 131 154 155
3 132 138 137
3 128 147 146
3 168 142 249
3 177 126 133
3 186 150 177
3 195 149 186
3 204 148 195
3 213 147 204
3 222 146 213
3 231 145 222
3 240 144 231
3 249 143 240
3 159 141 130
3 169 140 141
3 170 139 140
3 139 172 138
3 172 137 138
3 173 136 137
3 136 175 135
3 175 134 135
3 176 133 134
3 158 169 159
3 178 170 169
3 179 171 170
3 180 172 171
3 181 173 172
3 182 174 173
3 183 175 174
3 184 176 175
3 185 177 176
3 157 178 158
3 187 179 178
3 188 180 179
3 189 181 180
3 190 182 181
3 191 183 182
3 192 184 183
3 193 185 184
3 194 186 185
3 156 187 157
3 196 188 187
3 197 189 188
3 198 190 189
3 199 191 190
3 200 192 191
3 201 193 192
3 202 194 193
3 203 195 194
3 155 196 156
3 205 197 196
3 206 198 197
3 207 199 198
3 208 200 199
3 209 201 200
3 210 202 201
3 211 203 202
3 212 204 203
3 154 205 155
3 214 206 205
3 215 207 206
3 216 208 207
3 217 209 208
3 218 210 209
3 219 211 210
3 220 212 211
3 221 213 212
3 153 214 154
3 223 215 214
3 224 216 215
3 225 217 216
3 226 218 217
3 227 219 218
3 228 220 219
3 229 221 220
3 230 222 221
3 152 223 153
3 232 224 223
3 233 225 224
3 234 226 225
3 235 227 226
3 236 228 227
3 237 229 228
3 238 230 229
3 239 231 230
3 151 232 152
3 241 233 232
3 242 234 233
3 243 235 234
3 244 236 235
3 245 237 236
3 246 238 237
3 247 239 238
3 248 240 239
3 129 241 151
3 160 242 241
3 161 243 242
3 162 244 243
3 163 245 244
3 164 246 245
3 165 247 246
3 166 248 247
3 167 249 248
3 127 125 168
3 127 168 167
3 129 131 160
3 131 127 164
3 160 131 161
3 161 131 162
3 127 167 166
3 127 166 165
3 162 131 163
3 163 131 164
3 127 131 132
3 130 132 159
3 132 131 155
3 159 132 158
3 131 129 151
3 131 151 152
3 158 132 157
3 157 132 156
3 131 152 153
3 131 153 154
3 156 132 155
3 132 130 141
3 132 141 140
3 126 128 133
3 128 132 137
3 133 128 134
3 134 128 135
3 132 140 139
3 132 139 138
3 135 128 136
3 136 128 137
3 128 126 150
3 128 150 149
3 125 127 142
3 127 128 146
3 142 127 143
3 143 127 144
3 128 149 148
3 128 148 147
3 144 127 145
3 145 127 146
3 168 125 142
3 177 150 126
3 186 149 150
3 195 148 149
3 204 147 148
3 213 146 147
3 222 145 146
3 231 144 145
3 240 143 144
3 249 142 143
3 159 169 141
3 169 170 140
3 170 171 139
3 139 171 172
3 172 173 137
3 173 174 136
3 136 174 175
3 175 176 134
3 176 177 133
3 158 178 169
3 178 179 170
3 179 180 171
3 180 181 172
3 181 182 173
3 182 183 174
3 183 184 175
3 184 185 176
3 185 186 177
3 157 187 178
3 187 188 179
3 188 189 180
3 189 190 181
3 190 191 182
3 191 192 183
3 192 193 184
3 193 194 185
3 194 195 186
3 156 196 187
3 196 197 188
3 197 198 189
3 198 199 190
3 199 200 191
3 200 201 192
3 201 202 193
3 202 203 194
3 203 204 195
3 155 205 196
3 205 206 197
3 206 207 198
3 207 208 199
3 208 209 200
3 209 210 201
3 210 211 202
3 211 212 203
3 212 213 204
3 154 214 205
3 214 215 206
3 215 216 207
3 216 217 208
3 217 218 209
3 218 219 210
3 219 220 211
3 220 221 212
3 221 222 213
3 153 223 214
3 223 224 215
3 224 225 216
3 225 226 217
3 226 227 218
3 227 228 219
3 228 229 220
3 229 230 221
3 230 231 222
3 152 232 223
3 232 233 224
3 233 234 225
3 234 235 226
3 235 236 227
3 236 237 228
3 237 238 229
3 238 239 230
3 239 240 231
3 151 241 232
3 241 242 233
3 242 243 234
3 243 244 235
3 244 245 236
3 245 246 237
3 246 247 238
3 247 248 239
3 248 249 240
3 129 160 241
3 160 161 242
3 161 162 243
3 162 163 244
3 163 164 245
3 164 165 246
3 165 166 247
3 166 167 248
3 167 168 249
CELL_TYPES 492
5
5
5
5
5
5
5
5
5
5
5
5
5
5
5
5
5
5
5
5
5
5
5
5
5
5
5
5
5
5
5
5
5
5
5
5
5
5
5
5
5
5
5
5
5
5
5
5
5
5
5
5
5
5
5
5
5
5
5
5
5
5
5
5
5
5
5
5
5
5
5
5
5
5
5
5
5
5
5
5
5
5
5
5
5
5
5
5
5
5
5
5
5
5
5
5
5
5
5
5
5
5
5
5
5
5
5
5
5
5
5
5
5
5
5
5
5
5
5
5
5
5
5
5
5
5
5
5
5
5
5
5
5
5
5
5
5
5
5
5
5
5
5
5
5
5
5
5
5
5
5
5
5
5
5
5
5
5
5
5
5
5
5
5
5
5
5
5
5
5
5
5
5
5
5
5
5
5
5
5
5
5
5
5
5
5
5
5
5
5
5
5
5
5
5
5
5
5
5
5
5
5
5
5
5
5
5
5
5
5
5
5
5
5
5
5
5
5
5
5
5
5
5
5
5
5
5
5
5
5
5
5
5
5
5
5
5
5
5
5
5
5
5
5
5
5
5
5
5
5
5
5
5
5
5
5
5
5
5
5
5
5
5
5
5
5
5
5
5
5
5
5
5
5
5
5
5
5
5
5
5
5
5
5
5
5
5
5
5
5
5
5
5
5
5
5
5
5
5
5
5
5
5
5
5
5
5
5
5
5
5
5
5
5
5
5
5
5
5
5
5
5
5
5
5
5
5
5
5
5
5
5
5
5
5
5
5
5
5
5
5
5
5
5
5
5
5
5
5
5
5
5
5
5
5
5
5
5
5
5
5
5
5
5
5
5
5
5
5
5
5
5
5
5
5
5
5
5
5
5
5
5
5
5
5
5
5
5
5
5
5
5
5
5
5
5
5
5
5
5
5
5
5
5
5
5
5
5
5
5
5
5
5
5
5
5
5
5
5
5
5
5
5
5
5
5
5
5
5
5
5
5
5
5
5
5
5
5
5
5
5
5
5
5
5
5
5
5
5
5
5
5
5
5
5
5
5
5
5
5
5
5
5
5
5
5
5
5
5
5
5
5
5
5
5
5
5
5
5
5
5
5
5
5
5
5
5
5
5
5
5
5
CELL_DATA 492
SCALARS PowerDensity FLOAT
LOOKUP_TABLE default
0.00037646509591721507
0.0002134402637809982
0.00016352518686576806
0.0003295268042281772
0.0001596067168738458
0.0004910151117803861
0.00045289730074873913
0.0004815150236441891
0.0005034059710286643
0.0005110425940378335
0.0004919621307535025
0.00048731090978102934
0.0004847954276710827
0.00046739531590550727
0.00047667103448399126
0.00045144110329070354
0.0004896876082577273
0.0005239770752916694
0.0004755585421441106
0.0005234889555306576
0.0005148792566485849
0.0004892579791781136
0.0005049700943642439
0.0005049008592873981
0.00045927542641708674
0.0004923179804474397
0.0005066080517564221
0.0005605923937453826
0.0005836907188725189
0.0005580893583465161
0.0005063092109994358
0.0004971909881479456
0.000523724729489465
0.0004889224836247006
0.0004911712308750406
0.0005397501841373403
0.0005488019741449704
0.000533910929143684
0.0005482184855922362
0.0005373575976419576
0.0005370202030990134
0.0005079304047826213
0.0004900169676568179
0.000503304081977044
0.0005096027089543992
0.0005348227428599984
0.0005483177087042129
0.000558104064824874
0.0005355641595116399
0.0005305909957806677
0.0005050609273120073
0.0004883570228165744
0.0005385294896834811
0.0005339493431149782
0.0005535621857251928
0.0005419965706413053
0.0005666881154388538
0.0005559582647236297
0.0005104019789071778
0.0005150602178158849
0.0004974053311538148
0.0005146123129238307
0.00054277233981451
0.0005357545971330991
0.0005668297586158494
0.0005010796780674866
0.000540455322774597
0.0005161331070731266
0.0005167363531389451
0.0005018606219589743
0.000505727861029471
0.0005410554620087967
0.0005547181061887605
0.0005629332490682545
0.0005419539948387738
0.0005462740679407914
0.0005368737179984488
0.0005221858985110859
0.0004633854564990982
0.0005064711514627968
0.0005140474606578314
0.0005284556829389346
0.0005301685228550449
0.000558923060024462
0.000541483465699172
0.0005241464381704451
0.0005182858985025905
0.0004953709087809282
0.0005033249178707876
0.0005177634297343668
0.0005385424971057095
0.000529677716877223
0.0005397156340783122
0.0005411593120984574
0.0005171641777687995
0.0004960978973061241
0.0004934740050947448
0.0004880864617789496
0.0005169799086960888
0.0005470002152971727
0.0005639832629581866
0.0005422314015017827
0.0005293887068121353
0.000526505928694446
0.0005136260215518453
0.0003662367641809534
0.0003535813572520936
0.00035404706025822703
0.00034974154345250135
0.0003681569410920167
0.00036774418313001504
0.0003639665332952471
0.00038283720828903513
0.00037995218877507204
0.000376766393550664
0.0001903873190105276
0.00017958278553030835
0.00017757163295621203
0.00017836021944288793
0.00015542232792216238
0.00016857510749297805
0.00017350696913489094
0.00016440318032847855
0.00015749799615408748
0.0001630155190004259
0.00017028607963318307
0.0003200765389597561
0.00031983816724454175
0.00031949832762299133
0.0003331190386908107
0.0003228322681253007
0.00032675077015892654
0.0003259370797392953
0.00032257428709152634
0.00032590712563390856
0.0003300035490868821
0.00019741519190378273
0.0001564410651847295
0.00015482181329194207
0.00016197577541882585
0.00015645049828534444
0.00015053603139299177
0.0001728406725608143
0.0001588179120679515
0.0001536626822849208
0.00015991496886500769
0.0004986803590278235
0.0005075367755986107
0.00047269180590781305
0.00047676632755104043
0.0005121762465909909
0.0005010028440401164
0.0005015589527607238
0.0004989030772779623
0.0004921694709437695
0.0004908000539966297
0.0004851256211657784
0.0005083502667479894
0.0004959095724232824
0.0005007586340597523
0.0005126658419127903
0.0005055249260603589
0.0005181827152718333
0.0005142107086606458
0.00048902197655966
0.000500846286197409
0.000526314831603423
0.0005202087511120087
0.0005325846558916532
0.0005275665462634383
0.0005578544746115218
0.0005209979936232986
0.0005077501823395192
0.0005112334868004809
0.0005089803880155418
0.0004998687759330528
0.0005379366169187161
0.0005686629290798975
0.0005440778558727161
0.0005830046475886741
0.0005485145393709701
0.0005407736844744077
0.0005051721535332123
0.0005159234525425527
0.0005360815283138758
0.0005630987714494863
0.0005536800790556135
0.0005522061690941001
0.0005529949631698558
0.0005472445284067723
0.0005509539412122862
0.0005234484506285216
0.0004811436057976943
0.000516914354517733
0.0005463241967198227
0.0005399126854031015
0.0005710328130579626
0.0005637581863432888
0.0005447542924257756
0.0005197480302108826
0.0005189750305561986
0.0005031072807894094
0.0005091396557071547
0.0005459604723275444
0.0005412795656964682
0.000562430144567478
0.0005485391118692863
0.0005375553960099102
0.0005217059729472096
0.0005055462275625144
0.000490375881881393
0.0005412798297935716
0.0005461175098686567
0.0005561272045541258
0.0005329870642779287
0.0005483538362255503
0.0005667744600657758
0.0005204336910486375
0.0005322284687142182
0.0004989380643403951
0.0005024579966476524
0.0005192407806158817
0.0005493068476635669
0.00054851827492714
0.0005347934691285903
0.0005249310286976767
0.0005170037563418953
0.0004984021952990556
0.00048437405775943475
0.0005134734962303248
0.000520509888640909
0.0005193463961806452
0.0005353674065306946
0.0005333529427997131
0.0005340646526582968
0.0005279093278651062
0.0005049970852857678
0.0004974553747066343
0.0005000184612202327
0.0005084400343152909
0.0005204142687726792
0.0005294846365053509
0.000504936112099363
0.0005095521979046444
0.0005247577530952207
0.0005042383165275354
0.0003505542285800783
0.00020519194353124914
0.00018397806406510362
0.0003763174446737649
0.00014845340666702622
0.0004800101252053609
0.0004922118392423002
0.0005066681892417717
0.0005038850645064242
0.000493892218483396
0.0004966333563002269
0.0004911492065223865
0.00048664523663598074
0.0004736033929219188
0.00048793292438726547
0.0004902565634507148
0.0004980907533389807
0.0005030806491454447
0.0005221667713661038
0.0005380701049281757
0.0005297294540943647
0.0005271355705008512
0.0005184782352054696
0.0005008611244722925
0.000485814672760518
0.0005089828512369165
0.0005151899283608064
0.000516875262135653
0.0005449158227903466
0.0005077483106938201
0.0005532456718789658
0.0005069898923577517
0.0005095950166627387
0.0005244881035748394
0.0005208547045001903
0.0005046258948990431
0.0005135153202120469
0.0005445864789751705
0.0005309222835165393
0.0005230440066245364
0.0005415499145088795
0.0004936559508412547
0.000483489824410712
0.0005043676600420406
0.0005141440191557474
0.000524883470402813
0.000543739350581888
0.0005608303758046307
0.0005278176374008696
0.0005225836839480849
0.000506921353553441
0.00047285513422809023
0.0005046482735649478
0.0005508469876816245
0.0005426843932280686
0.0005486584039708408
0.0005613836667460663
0.0005082947550702316
0.0005527261601662452
0.0004917046166494067
0.000480357582115498
0.0005046443656741752
0.000542584091198442
0.000532976889272356
0.0005426378155145936
0.0005592325376924133
0.0005263501590001108
0.0005512734313767893
0.0005163715228371848
0.0004963610864945022
0.000501882455210126
0.000516699258565681
0.0005500968192037312
0.000556215949438512
0.0005303305882500659
0.0005310030709011699
0.0005558181686135083
0.0004815412135671029
0.0004674990689942008
0.0005075499492496265
0.0005480445667343037
0.0005286746911860068
0.0005442177776356794
0.0005374886716889522
0.0005558962085409189
0.0005426651933968028
0.0005334356758530383
0.00047352121563136733
0.0004737789177540059
0.0005297968401236764
0.0005529936281807353
0.0005701124752017204
0.0005229639582316736
0.0005141018544159099
0.0005301618652858611
0.0005017590946060799
0.00044042117060968754
0.0004854196934838055
0.00047581149168182614
0.0004990647502369797
0.0004996058636002433
0.000535928938279514
0.0005359391832579343
0.0005008817314631243
0.0005017287475509722
0.00034508269062046053
0.00032382707752845073
0.00031021904468715044
0.00032760554851965517
0.00033190032482885884
0.0003218176785461013
0.00031299491522623907
0.00032608345380298907
0.0003269281879985704
0.00033569782714870785
0.00020888407376924538
0.00015463785116729702
0.00016622550813512058
0.0001568475845201078
0.00019112706188491603
0.0001626358787400409
0.00016369230997219673
0.0001606864558316731
0.00015789521111359968
0.00016510626961303512
0.0001572782614926661
0.0003818837715484383
0.0003614258244490773
0.0003941006800822196
0.0003614202305249576
0.00037932872820363044
0.00037104648067196055
0.00037230685003217235
0.00038928458380629746
0.0003838057591905746
0.00038874438422339605
0.000174087412333868
0.00016052464952889952
0.000190112406539512
0.0001745912910075627
0.0001825392323909017
0.00017930064959357595
0.00016047519336152312
0.00014875249844037956
0.0001711036647043824
0.00016597573524840703
0.0004951369166256468
0.000464468738074086
0.0004795566266741836
0.0005033083312694003
0.00048576421942543563
0.0004980222378496766
0.0004989952787091092
0.000484536635353545
0.00045900526090874547
0.00047022857117592475
0.0004944893266518947
0.0005113245289360502
0.000535649268567668
0.0005464753511667505
0.0005222631340146636
0.0005380895852274946
0.0005396755532605991
0.0005147167951767668
0.0004986053653219262
0.0005093173332581933
0.0005179664947771418
0.0005479458159383495
0.0005336132995948582
0.0005458881600767428
0.0005307117195505516
0.0005198259653739747
0.0005039689610445658
0.0005219418507691095
0.00047704231044103367
0.0005194393719491583
0.000518805301626529
0.0005311929931485664
0.0005413144666470183
0.0005556355603571483
0.0005213601788595709
0.0005366186279490791
0.0004936660944272687
0.000496160803331871
0.0004991503662021986
0.0005421598871112279
0.000534430191194699
0.0005398447564191673
0.0005558567113403948
0.0005417876492739492
0.0005448033173811069
0.0004990542979468766
0.0005059014441418977
0.0004929360303845627
0.0005319794386786349
0.0005323608606996376
0.0005311295044195974
0.0005215103633633093
0.0005308950731545839
0.0005065728925057642
0.0005105385904238654
0.0004920171606736552
0.0005153624370154965
0.0005141284510974067
0.0005531229401355098
0.000547690837249812
0.0005557838203990874
0.0005334238402384426
0.0005129639001992503
0.0005170571830637129
0.0004965334734272715
0.0005247564771055513
0.0005426795516695366
0.0005083878361115535
0.0005629081644775722
0.0005592849712265397
0.0005376504702499712
0.0005360119185210089
0.0004992983622000742
0.0004989604786915273
0.0005134599269236245
0.00047858777591189657
0.0005484924592172889
0.0005269312216926072
0.0005411234186783062
0.0005390168443034451
0.0005008824510030294
0.0005317399362440009
0.00046965202467955835
0.0004801329126118414
0.0005355385837446236
0.0005426003650229022
0.0005233742875402307
0.0005177466257546967
0.0005168692255004595
0.0005351528356722783
0.0004983184880923646
0.0004690608872083306
0.0004677278121817647
0.000482472768591442
0.0004984394556485525
0.0005180194324652121
0.0005181459167929196
0.000538219777479881
0.0005304901912021867
0.00044472654049052175
SCALARS PowerDensityError FLOAT
LOOKUP_TABLE default
9.56162386097951e-06
8.953666376158008e-06
6.260253137460593e-06
9.873758518711554e-06
7.072435345991917e-06
1.2320208784918252e-05
1.829102068402934e-05
1.792177183594696e-05
1.7711156679829762e-05
1.653042611941971e-05
1.541774230358702e-05
1.4573107595515104e-05
1.3642772089797243e-05
1.3106693245093215e-05
1.2678567433104389e-05
1.8171725550478536e-05
1.888863427379609e-05
1.945395085019555e-05
1.9446468034737275e-05
1.9731517409481286e-05
1.9877670890120547e-05
1.949384700266822e-05